  -1.4999999999999999E-002     0.0000000000000000     
  -1.4974999999999999E-002     0.0000000000000000     
  -1.4950000000000000E-002     0.0000000000000000     
  -1.4924999999999999E-002     0.0000000000000000     
  -1.4900000000000000E-002     0.0000000000000000     
  -1.4874999999999999E-002     0.0000000000000000     
  -1.4849999999999999E-002     0.0000000000000000     
  -1.4825000000000000E-002     0.0000000000000000     
  -1.4799999999999999E-002     0.0000000000000000     
  -1.4775000000000000E-002     0.0000000000000000     
  -1.4749999999999999E-002     0.0000000000000000     
  -1.4725000000000000E-002     0.0000000000000000     
  -1.4700000000000000E-002     0.0000000000000000     
  -1.4674999999999999E-002     0.0000000000000000     
  -1.4650000000000000E-002     0.0000000000000000     
  -1.4624999999999999E-002     0.0000000000000000     
  -1.4600000000000000E-002     0.0000000000000000     
  -1.4574999999999999E-002     0.0000000000000000     
  -1.4549999999999999E-002     0.0000000000000000     
  -1.4525000000000000E-002     0.0000000000000000     
  -1.4499999999999999E-002     0.0000000000000000     
  -1.4475000000000000E-002     0.0000000000000000     
  -1.4449999999999999E-002     0.0000000000000000     
  -1.4425000000000000E-002     0.0000000000000000     
  -1.4400000000000000E-002     0.0000000000000000     
  -1.4374999999999999E-002     0.0000000000000000     
  -1.4350000000000000E-002     0.0000000000000000     
  -1.4324999999999999E-002     0.0000000000000000     
  -1.4300000000000000E-002     0.0000000000000000     
  -1.4274999999999999E-002     0.0000000000000000     
  -1.4249999999999999E-002     0.0000000000000000     
  -1.4225000000000000E-002     0.0000000000000000     
  -1.4199999999999999E-002     0.0000000000000000     
  -1.4175000000000000E-002     0.0000000000000000     
  -1.4149999999999999E-002     0.0000000000000000     
  -1.4124999999999999E-002     0.0000000000000000     
  -1.4100000000000000E-002     0.0000000000000000     
  -1.4074999999999999E-002     0.0000000000000000     
  -1.4050000000000000E-002     0.0000000000000000     
  -1.4024999999999999E-002     0.0000000000000000     
  -1.3999999999999999E-002     0.0000000000000000     
  -1.3975000000000000E-002     0.0000000000000000     
  -1.3949999999999999E-002     0.0000000000000000     
  -1.3925000000000000E-002     0.0000000000000000     
  -1.3899999999999999E-002     0.0000000000000000     
  -1.3874999999999998E-002     0.0000000000000000     
  -1.3849999999999999E-002     0.0000000000000000     
  -1.3824999999999999E-002     0.0000000000000000     
  -1.3800000000000000E-002     0.0000000000000000     
  -1.3774999999999999E-002     0.0000000000000000     
  -1.3750000000000000E-002     0.0000000000000000     
  -1.3724999999999999E-002     0.0000000000000000     
  -1.3699999999999999E-002     0.0000000000000000     
  -1.3675000000000000E-002     0.0000000000000000     
  -1.3649999999999999E-002     0.0000000000000000     
  -1.3625000000000000E-002     0.0000000000000000     
  -1.3599999999999999E-002     0.0000000000000000     
  -1.3575000000000000E-002     0.0000000000000000     
  -1.3550000000000000E-002     0.0000000000000000     
  -1.3524999999999999E-002     0.0000000000000000     
  -1.3500000000000000E-002     0.0000000000000000     
  -1.3474999999999999E-002     0.0000000000000000     
  -1.3450000000000000E-002     0.0000000000000000     
  -1.3424999999999999E-002     0.0000000000000000     
  -1.3399999999999999E-002     0.0000000000000000     
  -1.3375000000000000E-002     0.0000000000000000     
  -1.3349999999999999E-002     0.0000000000000000     
  -1.3325000000000000E-002     0.0000000000000000     
  -1.3299999999999999E-002     0.0000000000000000     
  -1.3274999999999999E-002     0.0000000000000000     
  -1.3250000000000000E-002     0.0000000000000000     
  -1.3224999999999999E-002     0.0000000000000000     
  -1.3200000000000000E-002     0.0000000000000000     
  -1.3174999999999999E-002     0.0000000000000000     
  -1.3149999999999998E-002     0.0000000000000000     
  -1.3125000000000000E-002     0.0000000000000000     
  -1.3099999999999999E-002     0.0000000000000000     
  -1.3075000000000000E-002     0.0000000000000000     
  -1.3049999999999999E-002     0.0000000000000000     
  -1.3024999999999998E-002     0.0000000000000000     
  -1.2999999999999999E-002     0.0000000000000000     
  -1.2975000000000000E-002     0.0000000000000000     
  -1.2950000000000000E-002     0.0000000000000000     
  -1.2924999999999999E-002     0.0000000000000000     
  -1.2899999999999998E-002     0.0000000000000000     
  -1.2874999999999999E-002     0.0000000000000000     
  -1.2850000000000000E-002     0.0000000000000000     
  -1.2825000000000000E-002     0.0000000000000000     
  -1.2799999999999999E-002     0.0000000000000000     
  -1.2775000000000000E-002     0.0000000000000000     
  -1.2749999999999999E-002     0.0000000000000000     
  -1.2725000000000000E-002     0.0000000000000000     
  -1.2699999999999999E-002     0.0000000000000000     
  -1.2674999999999999E-002     0.0000000000000000     
  -1.2650000000000000E-002     0.0000000000000000     
  -1.2624999999999999E-002     0.0000000000000000     
  -1.2600000000000000E-002     0.0000000000000000     
  -1.2574999999999999E-002     0.0000000000000000     
  -1.2549999999999999E-002     0.0000000000000000     
  -1.2525000000000000E-002     0.0000000000000000     
  -1.2499999999999999E-002     0.0000000000000000     
  -1.2475000000000000E-002     0.0000000000000000     
  -1.2449999999999999E-002     0.0000000000000000     
  -1.2424999999999999E-002     0.0000000000000000     
  -1.2400000000000000E-002     0.0000000000000000     
  -1.2374999999999999E-002     0.0000000000000000     
  -1.2350000000000000E-002     0.0000000000000000     
  -1.2324999999999999E-002     0.0000000000000000     
  -1.2299999999999998E-002     0.0000000000000000     
  -1.2274999999999999E-002     0.0000000000000000     
  -1.2249999999999999E-002     0.0000000000000000     
  -1.2225000000000000E-002     0.0000000000000000     
  -1.2199999999999999E-002     0.0000000000000000     
  -1.2174999999999998E-002     0.0000000000000000     
  -1.2149999999999999E-002     0.0000000000000000     
  -1.2125000000000000E-002     0.0000000000000000     
  -1.2100000000000000E-002     0.0000000000000000     
  -1.2074999999999999E-002     0.0000000000000000     
  -1.2050000000000000E-002     0.0000000000000000     
  -1.2024999999999999E-002     0.0000000000000000     
  -1.2000000000000000E-002     0.0000000000000000     
  -1.1975000000000000E-002     0.0000000000000000     
  -1.1949999999999999E-002     0.0000000000000000     
  -1.1925000000000000E-002     0.0000000000000000     
  -1.1899999999999999E-002     0.0000000000000000     
  -1.1875000000000000E-002     0.0000000000000000     
  -1.1849999999999999E-002     0.0000000000000000     
  -1.1824999999999999E-002     0.0000000000000000     
  -1.1800000000000000E-002     0.0000000000000000     
  -1.1774999999999999E-002     0.0000000000000000     
  -1.1750000000000000E-002     0.0000000000000000     
  -1.1724999999999999E-002     0.0000000000000000     
  -1.1699999999999999E-002     0.0000000000000000     
  -1.1675000000000000E-002     0.0000000000000000     
  -1.1649999999999999E-002     0.0000000000000000     
  -1.1625000000000000E-002     0.0000000000000000     
  -1.1599999999999999E-002     0.0000000000000000     
  -1.1574999999999998E-002     0.0000000000000000     
  -1.1550000000000000E-002     0.0000000000000000     
  -1.1524999999999999E-002     0.0000000000000000     
  -1.1500000000000000E-002     0.0000000000000000     
  -1.1474999999999999E-002     0.0000000000000000     
  -1.1449999999999998E-002     0.0000000000000000     
  -1.1424999999999999E-002     0.0000000000000000     
  -1.1399999999999999E-002     0.0000000000000000     
  -1.1375000000000000E-002     0.0000000000000000     
  -1.1349999999999999E-002     0.0000000000000000     
  -1.1324999999999998E-002     0.0000000000000000     
  -1.1299999999999999E-002     0.0000000000000000     
  -1.1275000000000000E-002     0.0000000000000000     
  -1.1250000000000000E-002     0.0000000000000000     
  -1.1224999999999999E-002     0.0000000000000000     
  -1.1200000000000000E-002     0.0000000000000000     
  -1.1174999999999999E-002     0.0000000000000000     
  -1.1150000000000000E-002     0.0000000000000000     
  -1.1124999999999999E-002     0.0000000000000000     
  -1.1099999999999999E-002     0.0000000000000000     
  -1.1074999999999998E-002     0.0000000000000000     
  -1.1049999999999999E-002     0.0000000000000000     
  -1.1025000000000000E-002     0.0000000000000000     
  -1.0999999999999999E-002     0.0000000000000000     
  -1.0974999999999999E-002     0.0000000000000000     
  -1.0950000000000000E-002     0.0000000000000000     
  -1.0924999999999999E-002     0.0000000000000000     
  -1.0900000000000000E-002     0.0000000000000000     
  -1.0874999999999999E-002     0.0000000000000000     
  -1.0849999999999999E-002     0.0000000000000000     
  -1.0825000000000000E-002     0.0000000000000000     
  -1.0799999999999999E-002     0.0000000000000000     
  -1.0775000000000000E-002     0.0000000000000000     
  -1.0749999999999999E-002     0.0000000000000000     
  -1.0724999999999998E-002     0.0000000000000000     
  -1.0699999999999999E-002     0.0000000000000000     
  -1.0675000000000000E-002     0.0000000000000000     
  -1.0650000000000000E-002     0.0000000000000000     
  -1.0624999999999999E-002     0.0000000000000000     
  -1.0599999999999998E-002     0.0000000000000000     
  -1.0574999999999999E-002     0.0000000000000000     
  -1.0550000000000000E-002     0.0000000000000000     
  -1.0525000000000000E-002     0.0000000000000000     
  -1.0499999999999999E-002     0.0000000000000000     
  -1.0474999999999998E-002     0.0000000000000000     
  -1.0449999999999999E-002     0.0000000000000000     
  -1.0425000000000000E-002     0.0000000000000000     
  -1.0400000000000000E-002     0.0000000000000000     
  -1.0374999999999999E-002     0.0000000000000000     
  -1.0349999999999998E-002     0.0000000000000000     
  -1.0324999999999999E-002     0.0000000000000000     
  -1.0300000000000000E-002     0.0000000000000000     
  -1.0274999999999999E-002     0.0000000000000000     
  -1.0249999999999999E-002     0.0000000000000000     
  -1.0224999999999998E-002     0.0000000000000000     
  -1.0199999999999999E-002     0.0000000000000000     
  -1.0175000000000000E-002     0.0000000000000000     
  -1.0149999999999999E-002     0.0000000000000000     
  -1.0124999999999999E-002     0.0000000000000000     
  -1.0100000000000000E-002     0.0000000000000000     
  -1.0074999999999999E-002     0.0000000000000000     
  -1.0050000000000000E-002     0.0000000000000000     
  -1.0024999999999999E-002     0.0000000000000000     
  -9.9999999999999985E-003     0.0000000000000000     
  -9.9749999999999995E-003     0.0000000000000000     
  -9.9499999999999988E-003     0.0000000000000000     
  -9.9249999999999998E-003     0.0000000000000000     
  -9.8999999999999991E-003     0.0000000000000000     
  -9.8749999999999984E-003     0.0000000000000000     
  -9.8499999999999994E-003     0.0000000000000000     
  -9.8250000000000004E-003     0.0000000000000000     
  -9.7999999999999997E-003     0.0000000000000000     
  -9.7749999999999990E-003     0.0000000000000000     
  -9.7499999999999983E-003     0.0000000000000000     
  -9.7249999999999993E-003     0.0000000000000000     
  -9.7000000000000003E-003     0.0000000000000000     
  -9.6749999999999996E-003     0.0000000000000000     
  -9.6499999999999989E-003     0.0000000000000000     
  -9.6249999999999981E-003     0.0000000000000000     
  -9.5999999999999992E-003     0.0000000000000000     
  -9.5750000000000002E-003     0.0000000000000000     
  -9.5499999999999995E-003     0.0000000000000000     
  -9.5249999999999987E-003     0.0000000000000000     
  -9.4999999999999980E-003     0.0000000000000000     
  -9.4749999999999990E-003     0.0000000000000000     
  -9.4500000000000001E-003     0.0000000000000000     
  -9.4249999999999994E-003     0.0000000000000000     
  -9.3999999999999986E-003     0.0000000000000000     
  -9.3749999999999979E-003     0.0000000000000000     
  -9.3499999999999989E-003     0.0000000000000000     
  -9.3250000000000000E-003     0.0000000000000000     
  -9.2999999999999992E-003     0.0000000000000000     
  -9.2749999999999985E-003     0.0000000000000000     
  -9.2499999999999995E-003     0.0000000000000000     
  -9.2249999999999988E-003     0.0000000000000000     
  -9.1999999999999998E-003     0.0000000000000000     
  -9.1749999999999991E-003     0.0000000000000000     
  -9.1499999999999984E-003     0.0000000000000000     
  -9.1249999999999994E-003     0.0000000000000000     
  -9.1000000000000004E-003     0.0000000000000000     
  -9.0749999999999997E-003     0.0000000000000000     
  -9.0499999999999990E-003     0.0000000000000000     
  -9.0249999999999983E-003     0.0000000000000000     
  -8.9999999999999993E-003     0.0000000000000000     
  -8.9750000000000003E-003     0.0000000000000000     
  -8.9499999999999996E-003     0.0000000000000000     
  -8.9249999999999989E-003     0.0000000000000000     
  -8.8999999999999982E-003     0.0000000000000000     
  -8.8749999999999992E-003     0.0000000000000000     
  -8.8500000000000002E-003     0.0000000000000000     
  -8.8249999999999995E-003     0.0000000000000000     
  -8.7999999999999988E-003     0.0000000000000000     
  -8.7749999999999981E-003     0.0000000000000000     
  -8.7499999999999991E-003     0.0000000000000000     
  -8.7250000000000001E-003     0.0000000000000000     
  -8.6999999999999994E-003     0.0000000000000000     
  -8.6749999999999987E-003     0.0000000000000000     
  -8.6499999999999980E-003     0.0000000000000000     
  -8.6249999999999990E-003     0.0000000000000000     
  -8.6000000000000000E-003     0.0000000000000000     
  -8.5749999999999993E-003     0.0000000000000000     
  -8.5499999999999986E-003     0.0000000000000000     
  -8.5249999999999979E-003     0.0000000000000000     
  -8.4999999999999989E-003     0.0000000000000000     
  -8.4749999999999999E-003     0.0000000000000000     
  -8.4499999999999992E-003     0.0000000000000000     
  -8.4249999999999985E-003     0.0000000000000000     
  -8.3999999999999995E-003     0.0000000000000000     
  -8.3749999999999988E-003     0.0000000000000000     
  -8.3499999999999998E-003     0.0000000000000000     
  -8.3249999999999991E-003     0.0000000000000000     
  -8.2999999999999984E-003     0.0000000000000000     
  -8.2749999999999994E-003     0.0000000000000000     
  -8.2500000000000004E-003     0.0000000000000000     
  -8.2249999999999997E-003     0.0000000000000000     
  -8.1999999999999990E-003     0.0000000000000000     
  -8.1749999999999982E-003     0.0000000000000000     
  -8.1499999999999993E-003     0.0000000000000000     
  -8.1250000000000003E-003     0.0000000000000000     
  -8.0999999999999996E-003     0.0000000000000000     
  -8.0749999999999988E-003     0.0000000000000000     
  -8.0499999999999981E-003     0.0000000000000000     
  -8.0249999999999991E-003     0.0000000000000000     
  -8.0000000000000002E-003     0.0000000000000000     
  -7.9749999999999995E-003     0.0000000000000000     
  -7.9499999999999987E-003     0.0000000000000000     
  -7.9249999999999980E-003     0.0000000000000000     
  -7.8999999999999990E-003     0.0000000000000000     
  -7.8750000000000001E-003     0.0000000000000000     
  -7.8499999999999993E-003     0.0000000000000000     
  -7.8249999999999986E-003     0.0000000000000000     
  -7.7999999999999988E-003     0.0000000000000000     
  -7.7749999999999989E-003     0.0000000000000000     
  -7.7499999999999991E-003     0.0000000000000000     
  -7.7249999999999992E-003     0.0000000000000000     
  -7.6999999999999994E-003     0.0000000000000000     
  -7.6749999999999987E-003     0.0000000000000000     
  -7.6499999999999988E-003     0.0000000000000000     
  -7.6249999999999990E-003     0.0000000000000000     
  -7.5999999999999991E-003     0.0000000000000000     
  -7.5749999999999993E-003     0.0000000000000000     
  -7.5499999999999994E-003     0.0000000000000000     
  -7.5249999999999987E-003     0.0000000000000000     
  -7.4999999999999989E-003     0.0000000000000000     
  -7.4749999999999990E-003     0.0000000000000000     
  -7.4499999999999992E-003     0.0000000000000000     
  -7.4249999999999993E-003     0.0000000000000000     
  -7.3999999999999995E-003     0.0000000000000000     
  -7.3749999999999987E-003     0.0000000000000000     
  -7.3499999999999989E-003     0.0000000000000000     
  -7.3249999999999990E-003     0.0000000000000000     
  -7.2999999999999992E-003     0.0000000000000000     
  -7.2749999999999993E-003     0.0000000000000000     
  -7.2499999999999995E-003     0.0000000000000000     
  -7.2249999999999988E-003     0.0000000000000000     
  -7.1999999999999989E-003     0.0000000000000000     
  -7.1749999999999991E-003     0.0000000000000000     
  -7.1499999999999984E-003     0.0000000000000000     
  -7.1249999999999994E-003     0.0000000000000000     
  -7.0999999999999987E-003     0.0000000000000000     
  -7.0749999999999997E-003     0.0000000000000000     
  -7.0499999999999990E-003     0.0000000000000000     
  -7.0249999999999983E-003     0.0000000000000000     
  -6.9999999999999993E-003     0.0000000000000000     
  -6.9749999999999986E-003     0.0000000000000000     
  -6.9499999999999996E-003     0.0000000000000000     
  -6.9249999999999989E-003     0.0000000000000000     
  -6.8999999999999999E-003     0.0000000000000000     
  -6.8749999999999992E-003     0.0000000000000000     
  -6.8499999999999985E-003     0.0000000000000000     
  -6.8249999999999995E-003     0.0000000000000000     
  -6.7999999999999988E-003     0.0000000000000000     
  -6.7749999999999998E-003     0.0000000000000000     
  -6.7499999999999991E-003     0.0000000000000000     
  -6.7249999999999983E-003     0.0000000000000000     
  -6.6999999999999994E-003     0.0000000000000000     
  -6.6749999999999986E-003     0.0000000000000000     
  -6.6499999999999997E-003     0.0000000000000000     
  -6.6249999999999989E-003     0.0000000000000000     
  -6.5999999999999982E-003     0.0000000000000000     
  -6.5749999999999992E-003     0.0000000000000000     
  -6.5499999999999985E-003     0.0000000000000000     
  -6.5249999999999996E-003     0.0000000000000000     
  -6.4999999999999988E-003     0.0000000000000000     
  -6.4749999999999999E-003     0.0000000000000000     
  -6.4499999999999991E-003     0.0000000000000000     
  -6.4249999999999984E-003     0.0000000000000000     
  -6.3999999999999994E-003     0.0000000000000000     
  -6.3749999999999987E-003     0.0000000000000000     
  -6.3499999999999997E-003     0.0000000000000000     
  -6.3249999999999990E-003     0.0000000000000000     
  -6.2999999999999983E-003     0.0000000000000000     
  -6.2749999999999993E-003     0.0000000000000000     
  -6.2499999999999986E-003     0.0000000000000000     
  -6.2249999999999996E-003     0.0000000000000000     
  -6.1999999999999989E-003     0.0000000000000000     
  -6.1749999999999982E-003     0.0000000000000000     
  -6.1499999999999992E-003     0.0000000000000000     
  -6.1249999999999985E-003     0.0000000000000000     
  -6.0999999999999995E-003     0.0000000000000000     
  -6.0749999999999988E-003     0.0000000000000000     
  -6.0499999999999998E-003     0.0000000000000000     
  -6.0249999999999991E-003     0.0000000000000000     
  -5.9999999999999984E-003     0.0000000000000000     
  -5.9749999999999994E-003     0.0000000000000000     
  -5.9499999999999987E-003     0.0000000000000000     
  -5.9249999999999997E-003     0.0000000000000000     
  -5.8999999999999990E-003     0.0000000000000000     
  -5.8749999999999983E-003     0.0000000000000000     
  -5.8499999999999993E-003     0.0000000000000000     
  -5.8249999999999986E-003     0.0000000000000000     
  -5.7999999999999996E-003     0.0000000000000000     
  -5.7749999999999989E-003     0.0000000000000000     
  -5.7499999999999982E-003     0.0000000000000000     
  -5.7249999999999992E-003     0.0000000000000000     
  -5.6999999999999985E-003     0.0000000000000000     
  -5.6749999999999995E-003     0.0000000000000000     
  -5.6499999999999988E-003     0.0000000000000000     
  -5.6249999999999998E-003     0.0000000000000000     
  -5.5999999999999991E-003     0.0000000000000000     
  -5.5749999999999984E-003     0.0000000000000000     
  -5.5499999999999994E-003     0.0000000000000000     
  -5.5249999999999987E-003     0.0000000000000000     
  -5.4999999999999997E-003     0.0000000000000000     
  -5.4749999999999990E-003     0.0000000000000000     
  -5.4499999999999982E-003     0.0000000000000000     
  -5.4249999999999993E-003     0.0000000000000000     
  -5.3999999999999986E-003     0.0000000000000000     
  -5.3749999999999996E-003     0.0000000000000000     
  -5.3499999999999989E-003     0.0000000000000000     
  -5.3249999999999981E-003     0.0000000000000000     
  -5.2999999999999992E-003     0.0000000000000000     
  -5.2749999999999984E-003     0.0000000000000000     
  -5.2499999999999995E-003     0.0000000000000000     
  -5.2249999999999987E-003     0.0000000000000000     
  -5.1999999999999998E-003     0.0000000000000000     
  -5.1749999999999990E-003     0.0000000000000000     
  -5.1499999999999983E-003     0.0000000000000000     
  -5.1249999999999993E-003     0.0000000000000000     
  -5.0999999999999986E-003     0.0000000000000000     
  -5.0749999999999997E-003     0.0000000000000000     
  -5.0499999999999989E-003     0.0000000000000000     
  -5.0249999999999982E-003     0.0000000000000000     
  -4.9999999999999992E-003     0.0000000000000000     
  -4.9749999999999985E-003     0.0000000000000000     
  -4.9499999999999995E-003     0.0000000000000000     
  -4.9249999999999988E-003     0.0000000000000000     
  -4.8999999999999981E-003     0.0000000000000000     
  -4.8749999999999991E-003     0.0000000000000000     
  -4.8499999999999984E-003     0.0000000000000000     
  -4.8249999999999994E-003     0.0000000000000000     
  -4.7999999999999987E-003     0.0000000000000000     
  -4.7749999999999997E-003     0.0000000000000000     
  -4.7499999999999990E-003     0.0000000000000000     
  -4.7249999999999983E-003     0.0000000000000000     
  -4.6999999999999993E-003     0.0000000000000000     
  -4.6749999999999986E-003     0.0000000000000000     
  -4.6499999999999996E-003     0.0000000000000000     
  -4.6249999999999989E-003     0.0000000000000000     
  -4.5999999999999982E-003     0.0000000000000000     
  -4.5749999999999992E-003     0.0000000000000000     
  -4.5499999999999985E-003     0.0000000000000000     
  -4.5249999999999995E-003     0.0000000000000000     
  -4.4999999999999988E-003     0.0000000000000000     
  -4.4749999999999981E-003     0.0000000000000000     
  -4.4499999999999991E-003     0.0000000000000000     
  -4.4249999999999984E-003     0.0000000000000000     
  -4.3999999999999994E-003     0.0000000000000000     
  -4.3749999999999987E-003     0.0000000000000000     
  -4.3499999999999997E-003     0.0000000000000000     
  -4.3249999999999990E-003     0.0000000000000000     
  -4.2999999999999983E-003     0.0000000000000000     
  -4.2749999999999993E-003     0.0000000000000000     
  -4.2499999999999986E-003     0.0000000000000000     
  -4.2249999999999996E-003     0.0000000000000000     
  -4.1999999999999989E-003     0.0000000000000000     
  -4.1749999999999982E-003     0.0000000000000000     
  -4.1499999999999992E-003     0.0000000000000000     
  -4.1249999999999985E-003     0.0000000000000000     
  -4.0999999999999995E-003     0.0000000000000000     
  -4.0749999999999988E-003     0.0000000000000000     
  -4.0499999999999998E-003     0.0000000000000000     
  -4.0249999999999991E-003     0.0000000000000000     
  -3.9999999999999983E-003     0.0000000000000000     
  -3.9749999999999994E-003     0.0000000000000000     
  -3.9499999999999987E-003     0.0000000000000000     
  -3.9249999999999997E-003     0.0000000000000000     
  -3.8999999999999990E-003     0.0000000000000000     
  -3.8749999999999982E-003     0.0000000000000000     
  -3.8499999999999993E-003     0.0000000000000000     
  -3.8249999999999985E-003     0.0000000000000000     
  -3.7999999999999996E-003     0.0000000000000000     
  -3.7749999999999988E-003     0.0000000000000000     
  -3.7499999999999981E-003     0.0000000000000000     
  -3.7249999999999991E-003     0.0000000000000000     
  -3.6999999999999984E-003     0.0000000000000000     
  -3.6749999999999994E-003     0.0000000000000000     
  -3.6499999999999987E-003     0.0000000000000000     
  -3.6249999999999998E-003     0.0000000000000000     
  -3.5999999999999990E-003     0.0000000000000000     
  -3.5749999999999983E-003     0.0000000000000000     
  -3.5499999999999993E-003     0.0000000000000000     
  -3.5249999999999986E-003     0.0000000000000000     
  -3.4999999999999996E-003     0.0000000000000000     
  -3.4749999999999989E-003     0.0000000000000000     
  -3.4499999999999982E-003     0.0000000000000000     
  -3.4249999999999992E-003     0.0000000000000000     
  -3.3999999999999985E-003     0.0000000000000000     
  -3.3749999999999995E-003     0.0000000000000000     
  -3.3499999999999988E-003     0.0000000000000000     
  -3.3249999999999981E-003     0.0000000000000000     
  -3.2999999999999991E-003     0.0000000000000000     
  -3.2749999999999984E-003     0.0000000000000000     
  -3.2499999999999994E-003     0.0000000000000000     
  -3.2249999999999987E-003     0.0000000000000000     
  -3.1999999999999997E-003     0.0000000000000000     
  -3.1749999999999990E-003     0.0000000000000000     
  -3.1499999999999983E-003     0.0000000000000000     
  -3.1249999999999993E-003     0.0000000000000000     
  -3.0999999999999986E-003     0.0000000000000000     
  -3.0749999999999996E-003     0.0000000000000000     
  -3.0499999999999989E-003     0.0000000000000000     
  -3.0249999999999982E-003     0.0000000000000000     
  -2.9999999999999992E-003     0.0000000000000000     
  -2.9749999999999985E-003     0.0000000000000000     
  -2.9499999999999995E-003     0.0000000000000000     
  -2.9249999999999988E-003     0.0000000000000000     
  -2.8999999999999981E-003     0.0000000000000000     
  -2.8749999999999991E-003     0.0000000000000000     
  -2.8499999999999984E-003     0.0000000000000000     
  -2.8249999999999994E-003     0.0000000000000000     
  -2.7999999999999987E-003     0.0000000000000000     
  -2.7749999999999997E-003     0.0000000000000000     
  -2.7499999999999990E-003     0.0000000000000000     
  -2.7249999999999983E-003     0.0000000000000000     
  -2.6999999999999993E-003     0.0000000000000000     
  -2.6749999999999986E-003     0.0000000000000000     
  -2.6499999999999996E-003     0.0000000000000000     
  -2.6249999999999989E-003     0.0000000000000000     
  -2.5999999999999981E-003     0.0000000000000000     
  -2.5749999999999992E-003     0.0000000000000000     
  -2.5499999999999984E-003     0.0000000000000000     
  -2.5249999999999995E-003     0.0000000000000000     
  -2.4999999999999988E-003     0.0000000000000000     
  -2.4749999999999980E-003     0.0000000000000000     
  -2.4499999999999991E-003     0.0000000000000000     
  -2.4249999999999983E-003     0.0000000000000000     
  -2.3999999999999994E-003     0.0000000000000000     
  -2.3749999999999986E-003     0.0000000000000000     
  -2.3499999999999997E-003     0.0000000000000000     
  -2.3249999999999989E-003     0.0000000000000000     
  -2.2999999999999982E-003     0.0000000000000000     
  -2.2749999999999992E-003     0.0000000000000000     
  -2.2499999999999985E-003     0.0000000000000000     
  -2.2249999999999995E-003     0.0000000000000000     
  -2.1999999999999988E-003     0.0000000000000000     
  -2.1749999999999981E-003     0.0000000000000000     
  -2.1499999999999991E-003     0.0000000000000000     
  -2.1249999999999984E-003     0.0000000000000000     
  -2.0999999999999994E-003     0.0000000000000000     
  -2.0749999999999987E-003     0.0000000000000000     
  -2.0499999999999980E-003     0.0000000000000000     
  -2.0249999999999990E-003     0.0000000000000000     
  -1.9999999999999983E-003     0.0000000000000000     
  -1.9749999999999993E-003     0.0000000000000000     
  -1.9499999999999986E-003     0.0000000000000000     
  -1.9249999999999996E-003     0.0000000000000000     
  -1.8999999999999989E-003     0.0000000000000000     
  -1.8749999999999982E-003     0.0000000000000000     
  -1.8499999999999992E-003     0.0000000000000000     
  -1.8249999999999985E-003     0.0000000000000000     
  -1.7999999999999995E-003     0.0000000000000000     
  -1.7749999999999988E-003     0.0000000000000000     
  -1.7499999999999981E-003     0.0000000000000000     
  -1.7249999999999991E-003     0.0000000000000000     
  -1.6999999999999984E-003     0.0000000000000000     
  -1.6749999999999994E-003     0.0000000000000000     
  -1.6499999999999987E-003     0.0000000000000000     
  -1.6249999999999980E-003     0.0000000000000000     
  -1.5999999999999990E-003     0.0000000000000000     
  -1.5749999999999983E-003     0.0000000000000000     
  -1.5499999999999993E-003     0.0000000000000000     
  -1.5249999999999986E-003     0.0000000000000000     
  -1.4999999999999996E-003     0.0000000000000000     
  -1.4749999999999989E-003     0.0000000000000000     
  -1.4499999999999982E-003     0.0000000000000000     
  -1.4249999999999992E-003     0.0000000000000000     
  -1.3999999999999985E-003     0.0000000000000000     