  -1.4999999999999999E-002     0.0000000000000000     
  -1.4624999999999999E-002     0.0000000000000000     
  -1.4249999999999999E-002     0.0000000000000000     
  -1.3874999999999998E-002     0.0000000000000000     
  -1.3500000000000000E-002     0.0000000000000000     
  -1.3125000000000000E-002     0.0000000000000000     
  -1.2749999999999999E-002     0.0000000000000000     
  -1.2374999999999999E-002     0.0000000000000000     
  -1.2000000000000000E-002     0.0000000000000000     
  -1.1625000000000000E-002     0.0000000000000000     
  -1.1250000000000000E-002     0.0000000000000000     
  -1.0874999999999999E-002     0.0000000000000000     
  -1.0499999999999999E-002     0.0000000000000000     
  -1.0124999999999999E-002     0.0000000000000000     
  -9.7499999999999983E-003     0.0000000000000000     
  -9.3749999999999979E-003     0.0000000000000000     
  -8.9999999999999993E-003     0.0000000000000000     
  -8.6249999999999990E-003     0.0000000000000000     
  -8.2500000000000004E-003     0.0000000000000000     
  -7.8750000000000001E-003     0.0000000000000000     
  -7.4999999999999989E-003     0.0000000000000000     
  -7.1249999999999994E-003     0.0000000000000000     
  -6.7499999999999991E-003     0.0000000000000000     
  -6.3749999999999987E-003     0.0000000000000000     
  -5.9999999999999984E-003     0.0000000000000000     
  -5.6249999999999998E-003     0.0000000000000000     
  -5.2499999999999995E-003     0.0000000000000000     
  -4.8749999999999991E-003     0.0000000000000000     
  -4.4999999999999988E-003     0.0000000000000000     
  -4.1249999999999985E-003     0.0000000000000000     
  -3.7499999999999981E-003     0.0000000000000000     
  -3.3749999999999995E-003     0.0000000000000000     
  -2.9999999999999992E-003     0.0000000000000000     
  -2.6249999999999989E-003     0.0000000000000000     
  -2.2499999999999985E-003     0.0000000000000000     
  -1.8749999999999982E-003     0.0000000000000000     
  -1.4999999999999996E-003     0.0000000000000000     
  -1.1249999999999993E-003     0.0000000000000000     
  -7.4999999999999893E-004     0.0000000000000000     
  -3.7499999999999860E-004     0.0000000000000000     
   1.7347234759768071E-018     0.0000000000000000     
   3.7500000000000207E-004     0.0000000000000000     
   7.5000000000000067E-004     0.0000000000000000     
   1.1250000000000010E-003     0.0000000000000000     
   1.5000000000000013E-003     0.0000000000000000     
   1.8750000000000017E-003     0.0000000000000000     
   2.2500000000000020E-003     0.0000000000000000     
   2.6250000000000023E-003     0.0000000000000000     
   3.0000000000000027E-003     0.0000000000000000     
   3.3750000000000030E-003     0.0000000000000000     
   3.7499999999999999E-003     0.0000000000000000     
   4.1250000000000002E-003     0.0000000000000000     
   4.5000000000000005E-003     0.0000000000000000     
   4.8750000000000009E-003     0.0000000000000000     
   5.2500000000000012E-003     0.0000000000000000     
   5.6250000000000015E-003     0.0000000000000000     
   6.0000000000000019E-003     0.0000000000000000     
   6.3750000000000022E-003     0.0000000000000000     
   6.7500000000000025E-003     0.0000000000000000     
   7.1250000000000029E-003    -1.1611248983076369E-053
   7.5000000000000032E-003    -2.2499706495405237E-050
   7.8750000000000001E-003    -4.5101774128369995E-038
   8.2500000000000004E-003    -1.7984652603141303E-035
   8.6250000000000007E-003    -1.5298386377237971E-034
   9.0000000000000011E-003    -4.5830525280787802E-034
   9.3750000000000014E-003     5.7074822680953206E-032
   9.7500000000000017E-003     2.7745719399969836E-031
   1.0125000000000002E-002    -2.0002252414181737E-030
   1.0500000000000002E-002    -9.2500740266912457E-030
   1.0875000000000003E-002     8.3654882381411252E-029
   1.1250000000000003E-002    -8.6303149148848504E-029
   1.1625000000000003E-002    -1.4121172933322008E-027
   1.2000000000000000E-002     9.7794958960505067E-027
   1.2375000000000001E-002    -3.9849009599826752E-026
   1.2750000000000001E-002     1.2642156433292916E-025
   1.3125000000000001E-002    -3.9408050350079308E-025
   1.3500000000000002E-002     3.5838084641634146E-024
   1.3875000000000002E-002     1.0177012560383736E-023
   1.4250000000000002E-002     4.2271595168727950E-023
   1.4625000000000003E-002     1.5645361781074823E-022
   1.5000000000000003E-002     5.9081440798251583E-022
   1.5375000000000003E-002     2.1743818567436959E-021
   1.5750000000000004E-002     7.8672529701234244E-021
   1.6125000000000000E-002     2.7944496725333903E-020
   1.6500000000000001E-002     9.7455484368273670E-020
   1.6875000000000001E-002     3.3369579097982715E-019
   1.7250000000000001E-002     1.1217968426621572E-018
   1.7625000000000002E-002     3.7025132545674602E-018
   1.8000000000000002E-002     1.1997376936535311E-017
   1.8375000000000002E-002     3.8165887124517272E-017
   1.8750000000000003E-002     1.1919339090911181E-016
   1.9125000000000003E-002     3.6543810136223570E-016
   1.9500000000000003E-002     1.0998669435539931E-015
   1.9875000000000004E-002     3.2496323540732741E-015
   2.0250000000000004E-002     9.4248190530697017E-015
   2.0625000000000004E-002     2.6831844312506131E-014
   2.1000000000000005E-002     7.4981186072588116E-014
   2.1375000000000005E-002     2.0566803936113073E-013
   2.1750000000000005E-002     5.5370470352502760E-013
   2.2125000000000006E-002     1.4630948001607171E-012
   2.2499999999999999E-002     3.7943307545025530E-012
   2.2875000000000000E-002     9.6570865321027136E-012
   2.3250000000000000E-002     2.4120792426741119E-011
   2.3625000000000000E-002     5.9121728789227085E-011
   2.4000000000000000E-002     1.4219946896227682E-010
   2.4375000000000001E-002     3.3559802669856736E-010
   2.4750000000000001E-002     7.7711939365617405E-010
   2.5125000000000001E-002     1.7655428295899087E-009
   2.5500000000000002E-002     3.9351703577221693E-009
   2.5875000000000002E-002     8.6043405349961818E-009
   2.6250000000000002E-002     1.8454600135711295E-008
   2.6625000000000003E-002     3.8823239619591091E-008
   2.7000000000000003E-002     8.0102186752638310E-008
   2.7375000000000003E-002     1.6207707527786181E-007
   2.7750000000000004E-002     3.2157243185189896E-007
   2.8125000000000004E-002     6.2555807338683544E-007
   2.8500000000000004E-002     1.1929996454149554E-006
   2.8875000000000005E-002     2.2301747248672826E-006
   2.9250000000000005E-002     4.0859595961943669E-006
   2.9625000000000005E-002     7.3358083488995002E-006
   3.0000000000000006E-002     1.2903653766062110E-005
   3.0375000000000006E-002     2.2233672776541012E-005
   3.0750000000000000E-002     3.7518021449479714E-005
   3.1125000000000000E-002     6.1987649372472828E-005
   3.1500000000000000E-002     1.0024585305200390E-004
   3.1875000000000001E-002     1.5863700313509217E-004
   3.2250000000000001E-002     2.4555575631596526E-004
   3.2625000000000001E-002     3.7164537129906407E-004
   3.3000000000000002E-002     5.4969928695337638E-004
   3.3375000000000002E-002     7.9415709012241385E-004
   3.3750000000000002E-002     1.1198773717948809E-003
   3.4125000000000003E-002     1.5401924317167269E-003
   3.4500000000000003E-002     2.0640382383180248E-003
   3.4875000000000003E-002     2.6919121252003764E-003
   3.5250000000000004E-002     3.4118496409035037E-003
   3.5625000000000004E-002     4.1944201276982998E-003
   3.6000000000000004E-002     4.9895624361726183E-003
   3.6375000000000005E-002     5.7236163720579269E-003
   3.6750000000000005E-002     6.3027351149187640E-003
   3.7125000000000005E-002     6.6158169240077168E-003
   3.7500000000000006E-002     6.5475681119863040E-003
   3.7875000000000006E-002     5.9922829923864714E-003
   3.8250000000000006E-002     4.8755719197156938E-003
   3.8625000000000007E-002     3.1712093229535722E-003
   3.9000000000000000E-002     9.2471340461521023E-004
   3.9375000000000000E-002    -1.7409371068250632E-003
   3.9750000000000001E-002    -4.6196720360156705E-003
   4.0125000000000001E-002    -7.4425460048836746E-003
   4.0500000000000001E-002    -9.9026503938168323E-003
   4.0875000000000002E-002    -1.1705570634837173E-002
   4.1250000000000002E-002    -1.2621316964486370E-002
   4.1625000000000002E-002    -1.2541399994353830E-002
   4.2000000000000003E-002    -1.1521436309942002E-002
   4.2375000000000003E-002    -9.8139701224810791E-003
   4.2750000000000003E-002    -7.8570584634070177E-003
   4.3125000000000004E-002    -6.2396399139981983E-003
   4.3500000000000004E-002    -5.6314479249503953E-003
   4.3875000000000004E-002    -6.6768354235258384E-003
   4.4250000000000005E-002    -9.8914440810786153E-003
   4.4625000000000005E-002    -1.5550220555448893E-002
   4.5000000000000005E-002    -2.3604796182428410E-002
   4.5375000000000006E-002    -3.3634704039242791E-002
   4.5750000000000006E-002    -4.4870544284148862E-002
   4.6125000000000006E-002    -5.6221359979466409E-002
   4.6500000000000007E-002    -6.6429586537639515E-002
   4.6875000000000007E-002    -7.4162280476047032E-002
   4.7250000000000000E-002    -7.8203841965383256E-002
   4.7625000000000001E-002    -7.7579483774366159E-002
   4.8000000000000001E-002    -7.1674260302810794E-002
   4.8375000000000001E-002    -6.0311867491466116E-002
   4.8750000000000002E-002    -4.3751426193402915E-002
   4.9125000000000002E-002    -2.2656870718638575E-002
   4.9500000000000002E-002     1.9830841193107921E-003
   4.9875000000000003E-002     2.8962014155836952E-002
   5.0250000000000003E-002     5.6995330076842203E-002
   5.0625000000000003E-002     8.4807353544465960E-002
   5.1000000000000004E-002    0.11121895087370559     
   5.1375000000000004E-002    0.13520599116312290     
   5.1750000000000004E-002    0.15591852267611933     
   5.2125000000000005E-002    0.17264065553144034     
   5.2500000000000005E-002    0.18477251924566312     
   5.2875000000000005E-002    0.19180919653015327     
   5.3250000000000006E-002    0.19326756117209806     
   5.3625000000000006E-002    0.18873958704967325     
   5.4000000000000006E-002    0.17789189793045185     
   5.4375000000000007E-002    0.16053702690783539     
   5.4750000000000007E-002    0.13674270673789232     
   5.5125000000000007E-002    0.10686723365221949     
   5.5500000000000008E-002     7.1724464274116689E-002
   5.5875000000000008E-002     3.2505628678375503E-002
   5.6250000000000008E-002    -9.1205555810922739E-003
   5.6625000000000009E-002    -5.1193065144453598E-002
   5.7000000000000009E-002    -9.1543552837741848E-002
   5.7375000000000009E-002   -0.12800911472485998     
   5.7750000000000010E-002   -0.15865020581616318     
   5.8125000000000010E-002   -0.18194020351402651     
   5.8500000000000010E-002   -0.19693142248687689     
   5.8875000000000011E-002   -0.20331868860783042     
   5.9250000000000011E-002   -0.20148504041012411     
   5.9624999999999997E-002   -0.19232392957033467     
   5.9999999999999998E-002   -0.17721017259255412     
   6.0374999999999998E-002   -0.15766997033757654     
   6.0749999999999998E-002   -0.13524185801242777     
   6.1124999999999999E-002   -0.11131219724194497     
   6.1499999999999999E-002    -8.6892507246681794E-002
   6.1874999999999999E-002    -6.2710464566858248E-002
   6.2250000000000000E-002    -3.9087387736601593E-002
   6.2625000000000000E-002    -1.6163125853232149E-002
   6.3000000000000000E-002     6.0605672032568673E-003
   6.3375000000000001E-002     2.7485215912606515E-002
   6.3750000000000001E-002     4.7872545710798929E-002
   6.4125000000000001E-002     6.6637797901874241E-002
   6.4500000000000002E-002     8.2932820359961051E-002
   6.4875000000000002E-002     9.5652982831642058E-002
   6.5250000000000002E-002    0.10350026140407632     
   6.5625000000000003E-002    0.10527900966539214     
   6.6000000000000003E-002     9.9957083993170701E-002
   6.6375000000000003E-002     8.6990603204613048E-002
   6.6750000000000004E-002     6.6375185475066489E-002
   6.7125000000000004E-002     3.8878627244015168E-002
   6.7500000000000004E-002     6.0055643383137673E-003
   6.7875000000000005E-002    -3.0069982524260318E-002
   6.8250000000000005E-002    -6.6500029543684752E-002
   6.8625000000000005E-002   -0.10017532617044331     
   6.9000000000000006E-002   -0.12786044610055619     
   6.9375000000000006E-002   -0.14660052608073665     
   6.9750000000000006E-002   -0.15403034621792666     
   7.0125000000000007E-002   -0.14874040086328486     
   7.0500000000000007E-002   -0.13044335607192820     
   7.0875000000000007E-002   -0.10017312739818740     
   7.1250000000000008E-002    -6.0280939873842532E-002
   7.1625000000000008E-002    -1.4162720637294205E-002
   7.2000000000000008E-002     3.3902519222409742E-002
   7.2375000000000009E-002     7.9386628727396574E-002
   7.2750000000000009E-002    0.11790847463980876     
   7.3125000000000009E-002    0.14583972756146713     
   7.3500000000000010E-002    0.16076881230811396     
   7.3875000000000010E-002    0.16179891031132532     
   7.4250000000000010E-002    0.14968638238266357     
   7.4625000000000011E-002    0.12670113185093218     
   7.5000000000000011E-002     9.6356613449635420E-002
   7.5375000000000011E-002     6.2832521181369894E-002
   7.5750000000000012E-002     3.0508354541831095E-002
   7.6124999999999998E-002     3.2041235694928215E-003
   7.6499999999999999E-002    -1.6110513571527353E-002
   7.6874999999999999E-002    -2.5848026806584670E-002
   7.7249999999999999E-002    -2.5829201588838467E-002
   7.7625000000000000E-002    -1.7140536275983664E-002
   7.8000000000000000E-002    -2.0338835622528296E-003
   7.8375000000000000E-002     1.6710174968715442E-002
   7.8750000000000001E-002     3.6061440200034184E-002
   7.9125000000000001E-002     5.3312473869861293E-002
   7.9500000000000001E-002     6.6409284230465992E-002
   7.9875000000000002E-002     7.4061801602644528E-002
   8.0250000000000002E-002     7.6007593647505117E-002
   8.0625000000000002E-002     7.2663904013932690E-002
   8.1000000000000003E-002     6.5073901045369878E-002
   8.1375000000000003E-002     5.4503222539339050E-002
   8.1750000000000003E-002     4.2182515186883512E-002
   8.2125000000000004E-002     2.8971941147139278E-002
   8.2500000000000004E-002     1.5357791975627996E-002
   8.2875000000000004E-002     1.2562800814635198E-003
   8.3250000000000005E-002    -1.3737519764991307E-002
   8.3625000000000005E-002    -3.0092884326334571E-002
   8.4000000000000005E-002    -4.8128057494569464E-002
   8.4375000000000006E-002    -6.7621479023271411E-002
   8.4750000000000006E-002    -8.7626778932060639E-002
   8.5125000000000006E-002   -0.10639323318352242     
   8.5500000000000007E-002   -0.12153176025074558     
   8.5875000000000007E-002   -0.13026073056392098     
   8.6250000000000007E-002   -0.12988384620429835     
   8.6625000000000008E-002   -0.11841524750941608     
   8.7000000000000008E-002    -9.4939648708877319E-002
   8.7375000000000008E-002    -6.0096642083319142E-002
   8.7750000000000009E-002    -1.6177590730164025E-002
   8.8125000000000009E-002     3.2967393444068523E-002
   8.8500000000000009E-002     8.2360146254770131E-002
   8.8875000000000010E-002    0.12647078808234677     
   8.9250000000000010E-002    0.15993012476914870     
   8.9625000000000010E-002    0.17834193881605059     
   9.0000000000000011E-002    0.17873701365625078     
   9.0375000000000011E-002    0.16008865843659509     
   9.0750000000000011E-002    0.12335716410257530     
   9.1125000000000012E-002     7.1352774489295695E-002
   9.1500000000000012E-002     8.2581230360024693E-003
   9.1875000000000012E-002    -6.0776946480293977E-002
   9.2250000000000013E-002   -0.13034468473097718     
   9.2624999999999999E-002   -0.19529202962899139     
   9.2999999999999999E-002   -0.25111812434847358     
   9.3375000000000000E-002   -0.29429128047378661     
   9.3750000000000000E-002   -0.32230475281562282     
   9.4125000000000000E-002   -0.33372279314872577     
   9.4500000000000001E-002   -0.32803769845940722     
   9.4875000000000001E-002   -0.30561801937424149     
   9.5250000000000001E-002   -0.26761610459783675     
   9.5625000000000002E-002   -0.21582749897676284     
   9.6000000000000002E-002   -0.15283531030348427     
   9.6375000000000002E-002    -8.1799693365777734E-002
   9.6750000000000003E-002    -6.4528068958642675E-003
   9.7125000000000003E-002     6.9228361954907558E-002
   9.7500000000000003E-002    0.14118879920386973     
   9.7875000000000004E-002    0.20587729120222492     
   9.8250000000000004E-002    0.26059298922415530     
   9.8625000000000004E-002    0.30392628377264053     
   9.9000000000000005E-002    0.33598011914871173     
   9.9375000000000005E-002    0.35838395881632429     
   9.9750000000000005E-002    0.37395119457695325     
  0.10012500000000001         0.38620502853261629     
  0.10050000000000001         0.39852045668299318     
  0.10087500000000001         0.41323201152860523     
  0.10125000000000001         0.43102079753030953     
  0.10162500000000001         0.45012281130145737     
  0.10200000000000001         0.46639717657259661     
  0.10237500000000001         0.47346472055864497     
  0.10275000000000001         0.46344194954217854     
  0.10312500000000001         0.42819771729437794     
  0.10350000000000001         0.36051111088842014     
  0.10387500000000001         0.25558233418124976     
  0.10425000000000001         0.11220618537331092     
  0.10462500000000001         -6.6431693094025634E-002
  0.10500000000000001        -0.27240561767321170     
  0.10537500000000001        -0.49332416559504011     
  0.10575000000000001        -0.71333946637922430     
  0.10612500000000001        -0.91442615947161243     
  0.10650000000000001         -1.0783898920445600     
  0.10687500000000001         -1.1886805260626450     
  0.10725000000000001         -1.2325874176041958     
  0.10762500000000001         -1.2025461148605749     
  0.10800000000000001         -1.0976563373592521     
  0.10837500000000001        -0.92377688701746408     
  0.10875000000000001        -0.69340699985343279     
  0.10912500000000000        -0.42444808464125683     
  0.10950000000000000        -0.13850326101402646     
  0.10987500000000000         0.14132868077405111     
  0.11025000000000000         0.39294738884260927     
  0.11062500000000001         0.59744524182699088     
  0.11100000000000000         0.74114053331375529     
  0.11137500000000002         0.81686994151879899     
  0.11175000000000000         0.82456709841538056     
  0.11212500000000002         0.77095269056404070     
  0.11250000000000000         0.66881243419575198     
  0.11287500000000002         0.53510103116017826     
  0.11325000000000000         0.38896772576172367     
  0.11362500000000002         0.24964438406780287     
  0.11400000000000000         0.13413214145234956     
  0.11437500000000002          5.5267779665407211E-002
  0.11475000000000000          2.0326588750545604E-002
  0.11512500000000002          3.0034251580781240E-002
  0.11550000000000001          7.8885449243873251E-002
  0.11587500000000002         0.15559805746930366     
  0.11625000000000001         0.24466413047165794     
  0.11662500000000002         0.32870020199486655     
  0.11700000000000001         0.39065459943170616     
  0.11737499999999999         0.41649072468587894     
  0.11775000000000001         0.39742911286440141     
  0.11812499999999999         0.33122483010461551     
  0.11850000000000001         0.22280370281373779     
  0.11887499999999999          8.3778905224126440E-002
  0.11925000000000001         -6.9236043252162857E-002
  0.11962500000000000        -0.21744033983987326     
  0.12000000000000001        -0.34225649691342286     
  0.12037500000000000        -0.42841725791919971     
  0.12075000000000001        -0.46648041108410065     
  0.12112500000000000        -0.45418891280447282     
  0.12150000000000001        -0.39629835539610131     
  0.12187500000000000        -0.30429059976981515     
  0.12225000000000001        -0.19384523624265401     
  0.12262500000000000         -8.2484797980644342E-002
  0.12300000000000001          1.3086398583835347E-002
  0.12337500000000000          7.9754658703508452E-002
  0.12375000000000001         0.10955530589937393     
  0.12412500000000000         0.10056094298565788     
  0.12450000000000001          5.6755865055417791E-002
  0.12487500000000000         -1.3046435262889343E-002
  0.12525000000000003         -9.6651457937212096E-002
  0.12562499999999999        -0.18078449281152797     
  0.12600000000000000        -0.25285903304956725     
  0.12637500000000002        -0.30278333940983065     
  0.12675000000000003        -0.32397498344454156     
  0.12712499999999999        -0.31407777525658492     
  0.12750000000000000        -0.27494957774642370     
  0.12787500000000002        -0.21202328258717068     
  0.12825000000000003        -0.13320670891244207     
  0.12862499999999999         -4.7833311095285623E-002
  0.12900000000000000          3.4538024491359377E-002
  0.12937500000000002         0.10553255149871907     
  0.12975000000000003         0.15871820728206970     
  0.13012499999999999         0.19002556241126439     
  0.13050000000000000         0.19842568600745661     
  0.13087500000000002         0.18520329704881983     
  0.13125000000000003         0.15394152039846803     
  0.13162499999999999         0.10997936322313458     
  0.13200000000000001          5.9240814314311559E-002
  0.13237500000000002          7.9702078808171779E-003
  0.13275000000000003         -3.8067018849714619E-002
  0.13312499999999999         -7.4066872926698224E-002
  0.13350000000000001         -9.6460397717659907E-002
  0.13387500000000002        -0.10314893923931436     
  0.13424999999999998         -9.3573413646808004E-002
  0.13462499999999999         -6.8506788475839159E-002
  0.13500000000000001         -3.0213615617211993E-002
  0.13537500000000002          1.8083666493900839E-002
  0.13574999999999998          7.2037380084646774E-002
  0.13612500000000000         0.12688427524651369     
  0.13650000000000001         0.17771080489282867     
  0.13687500000000002         0.21969001386246975     
  0.13724999999999998         0.24882727747088118     
  0.13762500000000000         0.26234634046781558     
  0.13800000000000001         0.25868593397637546     
  0.13837500000000003         0.23831013533278755     
  0.13874999999999998         0.20311861995232228     
  0.13912500000000000         0.15637820813893527     
  0.13950000000000001         0.10253407060030713     
  0.13987500000000003          4.6577536560588106E-002
  0.14024999999999999         -6.8988301487817767E-003
  0.14062500000000000         -5.3738079239912473E-002
  0.14100000000000001         -9.0878824604569461E-002
  0.14137500000000003        -0.11648555181781912     
  0.14174999999999999        -0.13023266327940045     
  0.14212500000000000        -0.13269112366611735     
  0.14250000000000002        -0.12535834280427793     
  0.14287500000000003        -0.11030485879759235     
  0.14324999999999999         -8.9684727276807111E-002
  0.14362500000000000         -6.5746737583009154E-002
  0.14400000000000002         -4.0623965317781507E-002
  0.14437500000000003         -1.6381120386222813E-002
  0.14474999999999999          4.9089557468806879E-003
  0.14512500000000000          2.1063660660923814E-002
  0.14550000000000002          2.9754185699791640E-002
  0.14587500000000003          2.9199889071100979E-002
  0.14624999999999999          1.7892845500035615E-002
  0.14662500000000001         -4.2756971265853578E-003
  0.14700000000000002         -3.5714480175794823E-002
  0.14737500000000003         -7.2503528847803894E-002
  0.14774999999999999        -0.10871011844154377     
  0.14812500000000001        -0.13633284024595085     
  0.14850000000000002        -0.14683243135342930     
  0.14887500000000004        -0.13268670829203794     
  0.14924999999999999         -8.8994838905264384E-002
  0.14962500000000001         -1.5957847120167731E-002
  0.15000000000000002          7.9900039486900276E-002
  0.15037499999999998         0.18577773272405471     
  0.15075000000000000         0.28290754898716031     
  0.15112500000000001         0.34912827775100486     
  0.15150000000000002         0.36318047465165065     
  0.15187499999999998         0.30816407514017791     
  0.15225000000000000         0.17669178985192088     
  0.15262500000000001         -2.6074984273396849E-002
  0.15300000000000002        -0.28121794943872697     
  0.15337499999999998        -0.55656433745860556     
  0.15375000000000000        -0.81092934643637937     
  0.15412500000000001        -0.99944236622988092     
  0.15450000000000003         -1.0813200153411930     
  0.15487499999999998         -1.0270468543832572     
  0.15525000000000000        -0.82416518287191431     
  0.15562500000000001        -0.48158928248354482     
  0.15600000000000003         -2.9666494908483505E-002
  0.15637499999999999         0.48278272602536043     
  0.15675000000000000         0.99458157385807100     
  0.15712500000000001          1.4403335247454940     
  0.15750000000000003          1.7598331519219359     
  0.15787499999999999          1.9058990356083811     
  0.15825000000000000          1.8518164880829107     
  0.15862500000000002          1.5944397337713498     
  0.15900000000000003          1.1547475211492650     
  0.15937499999999999         0.57522101975844031     
  0.15975000000000000         -8.5644685355169475E-002
  0.16012500000000002        -0.76045555143072996     
  0.16050000000000003         -1.3811262337111621     
  0.16087499999999999         -1.8859048371157061     
  0.16125000000000000         -2.2262965882445025     
  0.16162500000000002         -2.3711829277054699     
  0.16200000000000003         -2.3088250170728788     
  0.16237499999999999         -2.0477355839981741     
  0.16275000000000001         -1.6137921029877340     
  0.16312500000000002         -1.0468397657150226     
  0.16350000000000003        -0.39660323338167913     
  0.16387499999999999         0.28300137164661582     
  0.16425000000000001         0.93855227746676428     
  0.16462500000000002          1.5213063688907695     
  0.16500000000000004          1.9912587844205323     
  0.16537499999999999          2.3188087788040583     
  0.16575000000000001          2.4866460897359413     
  0.16612500000000002          2.4898577740125263     
  0.16650000000000004          2.3346944041872408     
  0.16687500000000000          2.0380086010290883     
  0.16725000000000001          1.6244245226160645     
  0.16762500000000002          1.1242119105677688     
  0.16799999999999998         0.57143137879085326     
  0.16837500000000000          5.6519444725386392E-004
  0.16875000000000001        -0.55480705769102745     
  0.16912500000000003         -1.0643979771870589     
  0.16949999999999998         -1.5025167241590314     
  0.16987500000000000         -1.8491027480485038     
  0.17025000000000001         -2.0902606350906083     
  0.17062500000000003         -2.2187922364876966     
  0.17099999999999999         -2.2336192400479793     
  0.17137500000000000         -2.1394722557675410     
  0.17175000000000001         -1.9463038113982503     
  0.17212500000000003         -1.6682078910953277     
  0.17249999999999999         -1.3224104323826569     
  0.17287500000000000        -0.92834876244780107     
  0.17325000000000002        -0.50653703576993658     
  0.17362500000000003         -7.7334725789591718E-002
  0.17399999999999999         0.33963992273586813     
  0.17437500000000000         0.72653274431603376     
  0.17475000000000002          1.0680114092397184     
  0.17512500000000003          1.3515150935633100     
  0.17549999999999999          1.5677502623664430     
  0.17587500000000000          1.7107768788352644     
  0.17625000000000002          1.7781490473924801     
  0.17662500000000003          1.7704035226978383     
  0.17699999999999999          1.6913798422654589     
  0.17737500000000000          1.5473005852762549     
  0.17775000000000002          1.3467590385421793     
  0.17812500000000003          1.1000658347993568     
  0.17849999999999999         0.81866663654417360     
  0.17887500000000001         0.51481794589772512     
  0.17925000000000002         0.20092215230575844     
  0.17962500000000003        -0.11104599943599340     
  0.17999999999999999        -0.40973020626168122     
  0.18037500000000001        -0.68483994260138759     
  0.18075000000000002        -0.92759813830419091     
  0.18112500000000004         -1.1306071339695363     
  0.18149999999999999         -1.2884734320201023     
  0.18187500000000001         -1.3973129433383229     
  0.18225000000000002         -1.4552843263918673     
  0.18262500000000004         -1.4622904547538886     
  0.18300000000000000         -1.4198792188987999     
  0.18337500000000001         -1.3312202570605791     
  0.18375000000000002         -1.2007095924938249     
  0.18412499999999998         -1.0340448849640951     
  0.18450000000000000        -0.83763031633343554     
  0.18487500000000001        -0.61863860949465677     
  0.18525000000000003        -0.38447338791455243     
  0.18562499999999998        -0.14284864624635704     
  0.18600000000000000          9.8626006498322677E-002
  0.18637500000000001         0.33289620464700431     
  0.18675000000000003         0.55297630044584234     
  0.18712499999999999         0.75301084633968285     
  0.18750000000000000         0.92762416141101411     
  0.18787500000000001          1.0725514253369379     
  0.18825000000000003          1.1846462070557295     
  0.18862499999999999          1.2616972426894508     
  0.18900000000000000          1.3023847508350954     