  -1.4999999999999999E-002     0.0000000000000000     
  -1.4624999999999999E-002     0.0000000000000000     
  -1.4249999999999999E-002     0.0000000000000000     
  -1.3874999999999998E-002     0.0000000000000000     
  -1.3500000000000000E-002     0.0000000000000000     
  -1.3125000000000000E-002     0.0000000000000000     
  -1.2749999999999999E-002     0.0000000000000000     
  -1.2374999999999999E-002     0.0000000000000000     
  -1.2000000000000000E-002     0.0000000000000000     
  -1.1625000000000000E-002     0.0000000000000000     
  -1.1250000000000000E-002     0.0000000000000000     
  -1.0874999999999999E-002     0.0000000000000000     
  -1.0499999999999999E-002     0.0000000000000000     
  -1.0124999999999999E-002     0.0000000000000000     
  -9.7499999999999983E-003     0.0000000000000000     
  -9.3749999999999979E-003     0.0000000000000000     
  -8.9999999999999993E-003     0.0000000000000000     
  -8.6249999999999990E-003     0.0000000000000000     
  -8.2500000000000004E-003     0.0000000000000000     
  -7.8750000000000001E-003     0.0000000000000000     
  -7.4999999999999989E-003     0.0000000000000000     
  -7.1249999999999994E-003     0.0000000000000000     
  -6.7499999999999991E-003     0.0000000000000000     
  -6.3749999999999987E-003     0.0000000000000000     
  -5.9999999999999984E-003     0.0000000000000000     
  -5.6249999999999998E-003     0.0000000000000000     
  -5.2499999999999995E-003     0.0000000000000000     
  -4.8749999999999991E-003     0.0000000000000000     
  -4.4999999999999988E-003     0.0000000000000000     
  -4.1249999999999985E-003     0.0000000000000000     
  -3.7499999999999981E-003     0.0000000000000000     
  -3.3749999999999995E-003     0.0000000000000000     
  -2.9999999999999992E-003     0.0000000000000000     
  -2.6249999999999989E-003     0.0000000000000000     
  -2.2499999999999985E-003     0.0000000000000000     
  -1.8749999999999982E-003     0.0000000000000000     
  -1.4999999999999996E-003     0.0000000000000000     
  -1.1249999999999993E-003     0.0000000000000000     
  -7.4999999999999893E-004     0.0000000000000000     
  -3.7499999999999860E-004     0.0000000000000000     
   1.7347234759768071E-018     0.0000000000000000     
   3.7500000000000207E-004     0.0000000000000000     
   7.5000000000000067E-004     0.0000000000000000     
   1.1250000000000010E-003     0.0000000000000000     
   1.5000000000000013E-003     0.0000000000000000     
   1.8750000000000017E-003     0.0000000000000000     
   2.2500000000000020E-003     0.0000000000000000     
   2.6250000000000023E-003     0.0000000000000000     
   3.0000000000000027E-003     0.0000000000000000     
   3.3750000000000030E-003     0.0000000000000000     
   3.7499999999999999E-003     0.0000000000000000     
   4.1250000000000002E-003     0.0000000000000000     
   4.5000000000000005E-003     0.0000000000000000     
   4.8750000000000009E-003     0.0000000000000000     
   5.2500000000000012E-003     0.0000000000000000     
   5.6250000000000015E-003     0.0000000000000000     
   6.0000000000000019E-003     0.0000000000000000     
   6.3750000000000022E-003     0.0000000000000000     
   6.7500000000000025E-003     0.0000000000000000     
   7.1250000000000029E-003     0.0000000000000000     
   7.5000000000000032E-003     0.0000000000000000     
   7.8750000000000001E-003     0.0000000000000000     
   8.2500000000000004E-003     0.0000000000000000     
   8.6250000000000007E-003     0.0000000000000000     
   9.0000000000000011E-003     0.0000000000000000     
   9.3750000000000014E-003     0.0000000000000000     
   9.7500000000000017E-003     0.0000000000000000     
   1.0125000000000002E-002     0.0000000000000000     
   1.0500000000000002E-002     0.0000000000000000     
   1.0875000000000003E-002     0.0000000000000000     
   1.1250000000000003E-002     0.0000000000000000     
   1.1625000000000003E-002     0.0000000000000000     
   1.2000000000000000E-002     0.0000000000000000     
   1.2375000000000001E-002     0.0000000000000000     
   1.2750000000000001E-002     0.0000000000000000     
   1.3125000000000001E-002     0.0000000000000000     
   1.3500000000000002E-002     0.0000000000000000     
   1.3875000000000002E-002     0.0000000000000000     
   1.4250000000000002E-002     0.0000000000000000     
   1.4625000000000003E-002     0.0000000000000000     
   1.5000000000000003E-002     0.0000000000000000     
   1.5375000000000003E-002     8.4165543044351947E-054
   1.5750000000000004E-002     1.8387498307374088E-051
   1.6125000000000000E-002     4.6062594417169012E-037
   1.6500000000000001E-002     1.0030559121901887E-034
   1.6875000000000001E-002     1.2927930455876747E-033
   1.7250000000000001E-002     2.3665626446677877E-032
   1.7625000000000002E-002     2.6947153277810984E-032
   1.8000000000000002E-002    -1.0530962293673892E-030
   1.8375000000000002E-002    -6.5951458928303904E-031
   1.8750000000000003E-002     3.5465361575350663E-029
   1.9125000000000003E-002    -1.2220779061195414E-028
   1.9500000000000003E-002    -1.9259167366374827E-028
   1.9875000000000004E-002     3.4774709077374984E-027
   2.0250000000000004E-002    -1.8824557950709332E-026
   2.0625000000000004E-002     7.1208593888193910E-026
   2.1000000000000005E-002    -2.4586919740532133E-025
   2.1375000000000005E-002     1.5549008085184185E-024
   2.1750000000000005E-002     4.5806577910080861E-024
   2.2125000000000006E-002     1.9081642167244805E-023
   2.2499999999999999E-002     7.0485869991459244E-023
   2.2875000000000000E-002     2.6737748323873502E-022
   2.3250000000000000E-002     9.8652316374168305E-022
   2.3625000000000000E-002     3.5796676270094944E-021
   2.4000000000000000E-002     1.2751178475333925E-020
   2.4375000000000001E-002     4.4595958734893943E-020
   2.4750000000000001E-002     1.5313801277843696E-019
   2.5125000000000001E-002     5.1629801023311330E-019
   2.5500000000000002E-002     1.7089874385897075E-018
   2.5875000000000002E-002     5.5538442180546871E-018
   2.6250000000000002E-002     1.7719672098751338E-017
   2.6625000000000003E-002     5.5502760988667599E-017
   2.7000000000000003E-002     1.7067383413505156E-016
   2.7375000000000003E-002     5.1522527225766514E-016
   2.7750000000000004E-002     1.5268706500003538E-015
   2.8125000000000004E-002     4.4418678605413086E-015
   2.8500000000000004E-002     1.2684678099962354E-014
   2.8875000000000005E-002     3.5557664510898192E-014
   2.9250000000000005E-002     9.7838981867040634E-014
   2.9625000000000005E-002     2.6424355132853908E-013
   3.0000000000000006E-002     7.0048326477043016E-013
   3.0375000000000006E-002     1.8225401632825320E-012
   3.0750000000000000E-002     4.6539722124445634E-012
   3.1125000000000000E-002     1.1663468690081677E-011
   3.1500000000000000E-002     2.8685686869020297E-011
   3.1875000000000001E-002     6.9234496750620911E-011
   3.2250000000000001E-002     1.6397491283854302E-010
   3.2625000000000001E-002     3.8107555371115571E-010
   3.3000000000000002E-002     8.6894844037583619E-010
   3.3375000000000002E-002     1.9440850331097616E-009
   3.3750000000000002E-002     4.2671260982349098E-009
   3.4125000000000003E-002     9.1883113780173751E-009
   3.4500000000000003E-002     1.9408079613045561E-008
   3.4875000000000003E-002     4.0211016205936163E-008
   3.5250000000000004E-002     8.1712073763131380E-008
   3.5625000000000004E-002     1.6284420614217078E-007
   3.6000000000000004E-002     3.1824377812668200E-007
   3.6375000000000005E-002     6.0982152887858453E-007
   3.6750000000000005E-002     1.1456661284036900E-006
   3.7125000000000005E-002     2.1099252034929337E-006
   3.7500000000000006E-002     3.8087118185237238E-006
   3.7875000000000006E-002     6.7378374795993921E-006
   3.8250000000000006E-002     1.1679643173739246E-005
   3.8625000000000007E-002     1.9834776595461116E-005
   3.9000000000000000E-002     3.2993341098785821E-005
   3.9375000000000000E-002     5.3744145502994086E-005
   3.9750000000000001E-002     8.5711078108228632E-005
   4.0125000000000001E-002     1.3378976052889091E-004
   4.0500000000000001E-002     2.0433743989622510E-004
   4.0875000000000002E-002     3.0525870085622601E-004
   4.1250000000000002E-002     4.4586375110622139E-004
   4.1625000000000002E-002     6.3642554732778306E-004
   4.2000000000000003E-002     8.8730810974731427E-004
   4.2375000000000003E-002     1.2075695787855160E-003
   4.2750000000000003E-002     1.6030019103666347E-003
   4.3125000000000004E-002     2.0738208416258004E-003
   4.3500000000000004E-002     2.6119263015389558E-003
   4.3875000000000004E-002     3.1985038614171001E-003
   4.4250000000000005E-002     3.8022768469610996E-003
   4.4625000000000005E-002     4.3791616802262307E-003
   4.5000000000000005E-002     4.8737463951529832E-003
   4.5375000000000006E-002     5.2238083215302442E-003
   4.5750000000000006E-002     5.3666950497574849E-003
   4.6125000000000006E-002     5.2499101298891680E-003
   4.6500000000000007E-002     4.8387358285052551E-003
   4.6875000000000007E-002     4.1312192214872298E-003
   4.7250000000000000E-002     3.1601163947947487E-003
   4.7625000000000001E-002     2.0010632487824612E-003
   4.8000000000000001E-002     7.6562975281136239E-004
   4.8375000000000001E-002    -4.0980979875527294E-004
   4.8750000000000002E-002    -1.3831102972734178E-003
   4.9125000000000002E-002    -2.0314850278625157E-003
   4.9500000000000002E-002    -2.2794603614691416E-003
   4.9875000000000003E-002    -2.1225730903813101E-003
   5.0250000000000003E-002    -1.6444108209210206E-003
   5.0625000000000003E-002    -1.0200088014812687E-003
   5.1000000000000004E-002    -5.0343488274579994E-004
   5.1375000000000004E-002    -3.9915478811493538E-004
   5.1750000000000004E-002    -1.0181461171488455E-003
   5.2125000000000005E-002    -2.6323272853484608E-003
   5.2500000000000005E-002    -5.4148926849598867E-003
   5.2875000000000005E-002    -9.4063284268439441E-003
   5.3250000000000006E-002    -1.4484600806729548E-002
   5.3625000000000006E-002    -2.0363432551220684E-002
   5.4000000000000006E-002    -2.6608405481280496E-002
   5.4375000000000007E-002    -3.2689095417644608E-002
   5.4750000000000007E-002    -3.8028045464852306E-002
   5.5125000000000007E-002    -4.2079014096284957E-002
   5.5500000000000008E-002    -4.4379363116332747E-002
   5.5875000000000008E-002    -4.4615386548955895E-002
   5.6250000000000008E-002    -4.2642507921283247E-002
   5.6625000000000009E-002    -3.8507961093995444E-002
   5.7000000000000009E-002    -3.2423977920565970E-002
   5.7375000000000009E-002    -2.4743942725985422E-002
   5.7750000000000010E-002    -1.5912604402513325E-002
   5.8125000000000010E-002    -6.4154610882512213E-003
   5.8500000000000010E-002     3.2701022712635164E-003
   5.8875000000000011E-002     1.2711043669112923E-002
   5.9250000000000011E-002     2.1545332144691388E-002
   5.9624999999999997E-002     2.9493978563688565E-002
   5.9999999999999998E-002     3.6350876164896115E-002
   6.0374999999999998E-002     4.1974900564961427E-002
   6.0749999999999998E-002     4.6277632327476732E-002
   6.1124999999999999E-002     4.9189751984753685E-002
   6.1499999999999999E-002     5.0674701655520279E-002
   6.1874999999999999E-002     5.0698974238128178E-002
   6.2250000000000000E-002     4.9273058589285892E-002
   6.2625000000000000E-002     4.6437218767358818E-002
   6.3000000000000000E-002     4.2313700658328936E-002
   6.3375000000000001E-002     3.7115120894997619E-002
   6.3750000000000001E-002     3.1163021580459346E-002
   6.4125000000000001E-002     2.4901907910291066E-002
   6.4500000000000002E-002     1.8874430733179078E-002
   6.4875000000000002E-002     1.3681469646239649E-002
   6.5250000000000002E-002     9.9203680216947768E-003
   6.5625000000000003E-002     8.1219652146295642E-003
   6.6000000000000003E-002     8.6179791660575579E-003
   6.6375000000000003E-002     1.1524216279746898E-002
   6.6750000000000004E-002     1.6610071256574915E-002
   6.7125000000000004E-002     2.3323564688658333E-002
   6.7500000000000004E-002     3.0792393983068385E-002
   6.7875000000000005E-002     3.7881933876574056E-002
   6.8250000000000005E-002     4.3353391877952972E-002
   6.8625000000000005E-002     4.5968378891035520E-002
   6.9000000000000006E-002     4.4710213942824879E-002
   6.9375000000000006E-002     3.8912907271415442E-002
   6.9750000000000006E-002     2.8399298046445112E-002
   7.0125000000000007E-002     1.3554799453855543E-002
   7.0500000000000007E-002    -4.6775989202975880E-003
   7.0875000000000007E-002    -2.4886271751279505E-002
   7.1250000000000008E-002    -4.5321812295007848E-002
   7.1625000000000008E-002    -6.4114378709901346E-002
   7.2000000000000008E-002    -7.9496167573911675E-002
   7.2375000000000009E-002    -8.9985330808069211E-002
   7.2750000000000009E-002    -9.4605577462036905E-002
   7.3125000000000009E-002    -9.2960741023525320E-002
   7.3500000000000010E-002    -8.5268726223902788E-002
   7.3875000000000010E-002    -7.2343922953770345E-002
   7.4250000000000010E-002    -5.5432277369646475E-002
   7.4625000000000011E-002    -3.6093179098126496E-002
   7.5000000000000011E-002    -1.5977803416539534E-002
   7.5375000000000011E-002     3.3361579231045158E-003
   7.5750000000000012E-002     2.0497945550155779E-002
   7.6124999999999998E-002     3.4499199057660392E-002
   7.6499999999999999E-002     4.4698330717642905E-002
   7.6874999999999999E-002     5.0836640134107242E-002
   7.7249999999999999E-002     5.2990154096576148E-002
   7.7625000000000000E-002     5.1468006750263376E-002
   7.8000000000000000E-002     4.6750400922323021E-002
   7.8375000000000000E-002     3.9404954668307665E-002
   7.8750000000000001E-002     3.0003265977800876E-002
   7.9125000000000001E-002     1.9106085359411808E-002
   7.9500000000000001E-002     7.2323230681093156E-003
   7.9875000000000002E-002    -5.1674377880340707E-003
   8.0250000000000002E-002    -1.7661870505687922E-002
   8.0625000000000002E-002    -2.9894251691958328E-002
   8.1000000000000003E-002    -4.1531809141026665E-002
   8.1375000000000003E-002    -5.2326052741643439E-002
   8.1750000000000003E-002    -6.2083695792258628E-002
   8.2125000000000004E-002    -7.0683087398152850E-002
   8.2500000000000004E-002    -7.8095225048866651E-002
   8.2875000000000004E-002    -8.4292905707239810E-002
   8.3250000000000005E-002    -8.9325261857691726E-002
   8.3625000000000005E-002    -9.3127692103859627E-002
   8.4000000000000005E-002    -9.5615945885502263E-002
   8.4375000000000006E-002    -9.6564987442906758E-002
   8.4750000000000006E-002    -9.5601376893869605E-002
   8.5125000000000006E-002    -9.2287680679431189E-002
   8.5500000000000007E-002    -8.6064069369591614E-002
   8.5875000000000007E-002    -7.6422136626934672E-002
   8.6250000000000007E-002    -6.2907067016158794E-002
   8.6625000000000008E-002    -4.5269466332394079E-002
   8.7000000000000008E-002    -2.3468125044084805E-002
   8.7375000000000008E-002     2.2032622688660489E-003
   8.7750000000000009E-002     3.1145485538250764E-002
   8.8125000000000009E-002     6.2458643013155304E-002
   8.8500000000000009E-002     9.4930560365744598E-002
   8.8875000000000010E-002    0.12713683726900946     
   8.9250000000000010E-002    0.15747959370917808     
   8.9625000000000010E-002    0.18428077627838321     
   9.0000000000000011E-002    0.20583362692135282     
   9.0375000000000011E-002    0.22058334240183811     
   9.0750000000000011E-002    0.22711079082345040     
   9.1125000000000012E-002    0.22436437730883382     
   9.1500000000000012E-002    0.21170501333645281     
   9.1875000000000012E-002    0.18898912960696812     
   9.2250000000000013E-002    0.15675793912265729     
   9.2624999999999999E-002    0.11612645726599899     
   9.2999999999999999E-002     6.8914149826900209E-002
   9.3375000000000000E-002     1.7497485256269697E-002
   9.3750000000000000E-002    -3.5287820542258083E-002
   9.4125000000000000E-002    -8.6324391360538724E-002
   9.4500000000000001E-002   -0.13248044988430116     
   9.4875000000000001E-002   -0.17078648389358445     
   9.5250000000000001E-002   -0.19877386645492523     
   9.5625000000000002E-002   -0.21462109362783602     
   9.6000000000000002E-002   -0.21736827555400215     
   9.6375000000000002E-002   -0.20698160568065732     
   9.6750000000000003E-002   -0.18442292289216761     
   9.7125000000000003E-002   -0.15149384647635267     
   9.7500000000000003E-002   -0.11077348269245747     
   9.7875000000000004E-002    -6.5322948651218155E-002
   9.8250000000000004E-002    -1.8446700913208849E-002
   9.8625000000000004E-002     2.6553656898014113E-002
   9.9000000000000005E-002     6.6755313209668543E-002
   9.9375000000000005E-002     9.9712208534098706E-002
   9.9750000000000005E-002    0.12373684626971673     
  0.10012500000000001         0.13791356600055293     
  0.10050000000000001         0.14215293425334724     
  0.10087500000000001         0.13710323747304221     
  0.10125000000000001         0.12398825096829219     
  0.10162500000000001         0.10449198320681868     
  0.10200000000000001          8.0502537214155651E-002
  0.10237500000000001          5.3994005526771853E-002
  0.10275000000000001          2.6796732776867557E-002
  0.10312500000000001          5.6113564600851354E-004
  0.10350000000000001         -2.3378729376677013E-002
  0.10387500000000001         -4.4037682855806427E-002
  0.10425000000000001         -6.0699048021952320E-002
  0.10462500000000001         -7.3033280881769941E-002
  0.10500000000000001         -8.0955329703102610E-002
  0.10537500000000001         -8.4631604188408163E-002
  0.10575000000000001         -8.4439653606239853E-002
  0.10612500000000001         -8.0922960817685005E-002
  0.10650000000000001         -7.4694394542609482E-002
  0.10687500000000001         -6.6416609085827860E-002
  0.10725000000000001         -5.6712662243806479E-002
  0.10762500000000001         -4.6079437837381179E-002
  0.10800000000000001         -3.4887053943696615E-002
  0.10837500000000001         -2.3346538518504122E-002
  0.10875000000000001         -1.1499774604982207E-002
  0.10912500000000000          6.3792644920845302E-004
  0.10950000000000000          1.3053515742949499E-002
  0.10987500000000000          2.5601383779827794E-002
  0.11025000000000000          3.7912566684882257E-002
  0.11062500000000001          4.9360379326186976E-002
  0.11100000000000000          5.9067974576160226E-002
  0.11137500000000002          6.5995091944198406E-002
  0.11175000000000000          6.9043381425505645E-002
  0.11212500000000002          6.7324099685743127E-002
  0.11250000000000000          6.0250522135878434E-002
  0.11287500000000002          4.7761305964571739E-002
  0.11325000000000000          3.0438080779187672E-002
  0.11362500000000002          9.4760925014167833E-003
  0.11400000000000000         -1.3337613643842561E-002
  0.11437500000000002         -3.5835365116172982E-002
  0.11475000000000000         -5.5669701710510007E-002
  0.11512500000000002         -7.0603633245963582E-002
  0.11550000000000001         -7.8849636986983301E-002
  0.11587500000000002         -7.9211255404981223E-002
  0.11625000000000001         -7.1398629194177887E-002
  0.11662500000000002         -5.6068987788583165E-002
  0.11700000000000001         -3.4728181657283454E-002
  0.11737499999999999         -9.7895800816905562E-003
  0.11775000000000001          1.5887226250871512E-002
  0.11812499999999999          3.9176272131538417E-002
  0.11850000000000001          5.7114770090419396E-002
  0.11887499999999999          6.7343040683339642E-002
  0.11925000000000001          6.8322504068847684E-002
  0.11962500000000000          5.9699933083881579E-002
  0.12000000000000001          4.2343318374781780E-002
  0.12037500000000000          1.8290179025993680E-002
  0.12075000000000001         -9.4699272604590514E-003
  0.12112500000000000         -3.7352817223809960E-002
  0.12150000000000001         -6.1655610978399292E-002
  0.12187500000000000         -7.9034991569448321E-002
  0.12225000000000001         -8.6949267419381207E-002
  0.12262500000000000         -8.3994519642079393E-002
  0.12300000000000001         -7.0104203176447014E-002
  0.12337500000000000         -4.6543358443960327E-002
  0.12375000000000001         -1.5718331634045429E-002
  0.12412500000000000          1.9102049595636807E-002
  0.12450000000000001          5.4246697080496897E-002
  0.12487500000000000          8.6035365063823574E-002
  0.12525000000000003         0.11125672782184991     
  0.12562499999999999         0.12748942013596562     
  0.12600000000000000         0.13327819206185962     
  0.12637500000000002         0.12830379799416805     
  0.12675000000000003         0.11328004910410801     
  0.12712499999999999          8.9791247471032024E-002
  0.12750000000000000          6.0079865638838464E-002
  0.12787500000000002          2.6744539944212352E-002
  0.12825000000000003         -7.5728641495504886E-003
  0.12862499999999999         -4.0346201668798307E-002
  0.12900000000000000         -6.9460708172445568E-002
  0.12937500000000002         -9.3242240386701952E-002
  0.12975000000000003        -0.11047763016540597     
  0.13012499999999999        -0.12050125846080181     
  0.13050000000000000        -0.12296217829137487     
  0.13087500000000002        -0.11791145380496001     
  0.13125000000000003        -0.10567667665120098     
  0.13162499999999999         -8.6854936626176701E-002
  0.13200000000000001         -6.2349469826599849E-002
  0.13237500000000002         -3.3382010473655632E-002
  0.13275000000000003         -1.6045762985877278E-003
  0.13312499999999999          3.1037615271744610E-002
  0.13350000000000001          6.2178761238381203E-002
  0.13387500000000002          8.9311928552329181E-002
  0.13424999999999998         0.10993483770911032     
  0.13462499999999999         0.12174895444344752     
  0.13500000000000001         0.12312413478712372     
  0.13537500000000002         0.11317160065209102     
  0.13574999999999998          9.2060381639320579E-002
  0.13612500000000000          6.1117525080511617E-002
  0.13650000000000001          2.2712254895827379E-002
  0.13687500000000002         -1.9861537303258448E-002
  0.13724999999999998         -6.2704341127572338E-002
  0.13762500000000000        -0.10171573422934160     
  0.13800000000000001        -0.13303405477463676     
  0.13837500000000003        -0.15343758959821047     
  0.13874999999999998        -0.16071152873026542     
  0.13912500000000000        -0.15388711993147447     
  0.13950000000000001        -0.13336186511192935     
  0.13987500000000003        -0.10085835959254560     
  0.14024999999999999         -5.9198686225150648E-002
  0.14062500000000000         -1.2119617399063672E-002
  0.14100000000000001          3.6306546166673170E-002
  0.14137500000000003          8.1875148666292960E-002
  0.14174999999999999         0.12086353266940378     
  0.14212500000000000         0.15028290352379481     
  0.14250000000000002         0.16821756789778772     
  0.14287500000000003         0.17392733067868607     
  0.14324999999999999         0.16786807836634823     
  0.14362500000000000         0.15159242248927840     
  0.14400000000000002         0.12739002612315165     
  0.14437500000000003          9.8115148633329013E-002
  0.14474999999999999          6.6650654792912156E-002
  0.14512500000000000          3.5751950029649197E-002
  0.14550000000000002          7.6176757590889366E-003
  0.14587500000000003         -1.6085119510877807E-002
  0.14624999999999999         -3.4513813093022809E-002
  0.14662500000000001         -4.7375067976488813E-002
  0.14700000000000002         -5.5024653453916876E-002
  0.14737500000000003         -5.8314446761543556E-002
  0.14774999999999999         -5.8355790480248013E-002
  0.14812500000000001         -5.6634346591471006E-002
  0.14850000000000002         -5.4686175538253383E-002
  0.14887500000000004         -5.4184669086805276E-002
  0.14924999999999999         -5.6713887526469463E-002
  0.14962500000000001         -6.3613218232046478E-002
  0.15000000000000002         -7.5864039195673777E-002
  0.15037499999999998         -9.3724318706666601E-002
  0.15075000000000000        -0.11669368081340602     
  0.15112500000000001        -0.14327881397258269     
  0.15150000000000002        -0.17101877067975493     
  0.15187499999999998        -0.19667734921426067     
  0.15225000000000000        -0.21642653751130433     
  0.15262500000000001        -0.22642800071951799     
  0.15300000000000002        -0.22315219483243628     
  0.15337499999999998        -0.20404650235816851     
  0.15375000000000000        -0.16782879057251060     
  0.15412500000000001        -0.11482968836030535     
  0.15450000000000003         -4.6978907755160698E-002
  0.15487499999999998          3.2142863638515068E-002
  0.15525000000000000         0.11787378933410524     
  0.15562500000000001         0.20472742717283682     
  0.15600000000000003         0.28703885360563441     
  0.15637499999999999         0.35949337046512458     
  0.15675000000000000         0.41757949381513271     
  0.15712500000000001         0.45801893947287570     
  0.15750000000000003         0.47893793631509196     
  0.15787499999999999         0.47994683611635214     
  0.15825000000000000         0.46212077821489433     
  0.15862500000000002         0.42768661144607251     
  0.15900000000000003         0.37972565913311340     
  0.15937499999999999         0.32189145586865336     
  0.15975000000000000         0.25775873047837006     
  0.16012500000000002         0.19065627962554579     
  0.16050000000000003         0.12309344671549535     
  0.16087499999999999          5.6599144106556906E-002
  0.16125000000000000         -8.4026996089775971E-003
  0.16162500000000002         -7.2629435568036110E-002
  0.16200000000000003        -0.13756178089570709     
  0.16237499999999999        -0.20512834044987449     
  0.16275000000000001        -0.27703060358050702     
  0.16312500000000002        -0.35415275666431961     
  0.16350000000000003        -0.43597803068593127     
  0.16387499999999999        -0.52003194320160662     
  0.16425000000000001        -0.60194143755014395     
  0.16462500000000002        -0.67532765393726557     
  0.16500000000000004        -0.73266351348094028     
  0.16537499999999999        -0.76596778373300745     
  0.16575000000000001        -0.76793020336797202     
  0.16612500000000002        -0.73321673951263500     
  0.16650000000000004        -0.65930717756393387     
  0.16687500000000000        -0.54722305501011470     
  0.16725000000000001        -0.40188868221735286     
  0.16762500000000002        -0.23157955999640611     
  0.16799999999999998         -4.7307331241952008E-002
  0.16837500000000000         0.13847646679100264     
  0.16875000000000001         0.31330031788527513     
  0.16912500000000003         0.46596477703855882     
  0.16949999999999998         0.58783346261144664     
  0.16987500000000000         0.67345061332339096     
  0.17025000000000001         0.72104652260262181     
  0.17062500000000003         0.73194061456503623     
  0.17099999999999999         0.71049441369610411     
  0.17137500000000000         0.66264638383199237     
  0.17175000000000001         0.59528301200220324     
  0.17212500000000003         0.51534525416659283     
  0.17249999999999999         0.42884651837937948     
  0.17287500000000000         0.34080220481200757     
  0.17325000000000002         0.25493665270772453     
  0.17362500000000003         0.17359895694880023     
  0.17399999999999999          9.8540277348826796E-002
  0.17437500000000000          3.0739135779779783E-002
  0.17475000000000002         -2.9099384895561214E-002
  0.17512500000000003         -8.0257186821124329E-002
  0.17549999999999999        -0.12213516340067715     
  0.17587500000000000        -0.15420410508796625     
  0.17625000000000002        -0.17605952202486011     
  0.17662500000000003        -0.18783370907639171     
  0.17699999999999999        -0.18997245612334948     
  0.17737500000000000        -0.18374552289734317     
  0.17775000000000002        -0.17080072480989594     
  0.17812500000000003        -0.15348669608243776     
  0.17849999999999999        -0.13448035347864204     
  0.17887500000000001        -0.11647509524490993     
  0.17925000000000002        -0.10229274487374120     
  0.17962500000000003         -9.4049038129317933E-002
  0.17999999999999999         -9.3221588121616822E-002
  0.18037500000000001        -0.10032228806772253     
  0.18075000000000002        -0.11442624048648933     
  0.18112500000000004        -0.13352444791905349     
  0.18149999999999999        -0.15429956413257750     
  0.18187500000000001        -0.17254922538769499     
  0.18225000000000002        -0.18393575719573879     
  0.18262500000000004        -0.18426054756797566     
  0.18300000000000000        -0.17050607549302288     
  0.18337500000000001        -0.14153625266457204     
  0.18375000000000002         -9.8223991460456850E-002
  0.18412499999999998         -4.4017217269931561E-002
  0.18450000000000000          1.5622280829045897E-002
  0.18487500000000001          7.3819499765859789E-002
  0.18525000000000003         0.12310132904130644     
  0.18562499999999998         0.15690723457286346     
  0.18600000000000000         0.17043871213432910     
  0.18637500000000001         0.16182324228141964     
  0.18675000000000003         0.13247276938165017     
  0.18712499999999999          8.7030176379765428E-002
  0.18750000000000000          3.2999822582498985E-002
  0.18787500000000001         -2.0885146880108084E-002
  0.18825000000000003         -6.5682066325557703E-002
  0.18862499999999999         -9.3839531590592870E-002
  0.18900000000000000        -0.10074226598877617     