  -1.4999999999999999E-002     0.0000000000000000     
  -1.4624999999999999E-002     0.0000000000000000     
  -1.4249999999999999E-002     0.0000000000000000     
  -1.3874999999999998E-002     0.0000000000000000     
  -1.3500000000000000E-002     0.0000000000000000     
  -1.3125000000000000E-002     0.0000000000000000     
  -1.2749999999999999E-002     0.0000000000000000     
  -1.2374999999999999E-002     0.0000000000000000     
  -1.2000000000000000E-002     0.0000000000000000     
  -1.1625000000000000E-002     0.0000000000000000     
  -1.1250000000000000E-002     0.0000000000000000     
  -1.0874999999999999E-002     0.0000000000000000     
  -1.0499999999999999E-002     0.0000000000000000     
  -1.0124999999999999E-002     0.0000000000000000     
  -9.7499999999999983E-003     0.0000000000000000     
  -9.3749999999999979E-003     0.0000000000000000     
  -8.9999999999999993E-003     0.0000000000000000     
  -8.6249999999999990E-003     0.0000000000000000     
  -8.2500000000000004E-003     0.0000000000000000     
  -7.8750000000000001E-003     0.0000000000000000     
  -7.4999999999999989E-003     0.0000000000000000     
  -7.1249999999999994E-003     0.0000000000000000     
  -6.7499999999999991E-003     0.0000000000000000     
  -6.3749999999999987E-003     0.0000000000000000     
  -5.9999999999999984E-003     0.0000000000000000     
  -5.6249999999999998E-003     0.0000000000000000     
  -5.2499999999999995E-003     0.0000000000000000     
  -4.8749999999999991E-003     0.0000000000000000     
  -4.4999999999999988E-003     0.0000000000000000     
  -4.1249999999999985E-003     0.0000000000000000     
  -3.7499999999999981E-003     0.0000000000000000     
  -3.3749999999999995E-003     0.0000000000000000     
  -2.9999999999999992E-003     0.0000000000000000     
  -2.6249999999999989E-003     0.0000000000000000     
  -2.2499999999999985E-003     0.0000000000000000     
  -1.8749999999999982E-003     0.0000000000000000     
  -1.4999999999999996E-003     0.0000000000000000     
  -1.1249999999999993E-003     0.0000000000000000     
  -7.4999999999999893E-004     0.0000000000000000     
  -3.7499999999999860E-004     0.0000000000000000     
   1.7347234759768071E-018     0.0000000000000000     
   3.7500000000000207E-004     0.0000000000000000     
   7.5000000000000067E-004     0.0000000000000000     
   1.1250000000000010E-003     0.0000000000000000     
   1.5000000000000013E-003     0.0000000000000000     
   1.8750000000000017E-003     0.0000000000000000     
   2.2500000000000020E-003     0.0000000000000000     
   2.6250000000000023E-003     0.0000000000000000     
   3.0000000000000027E-003     0.0000000000000000     
   3.3750000000000030E-003     0.0000000000000000     
   3.7499999999999999E-003     0.0000000000000000     
   4.1250000000000002E-003     0.0000000000000000     
   4.5000000000000005E-003     0.0000000000000000     
   4.8750000000000009E-003     0.0000000000000000     
   5.2500000000000012E-003     0.0000000000000000     
   5.6250000000000015E-003    -1.3126040315801471E-052
   6.0000000000000019E-003     9.9715158210109154E-051
   6.3750000000000022E-003     1.3991284604544199E-037
   6.7500000000000025E-003     9.6713809053753260E-036
   7.1250000000000029E-003     2.9216034398349089E-034
   7.5000000000000032E-003     3.7646528209822015E-033
   7.8750000000000001E-003     4.2175607129735544E-032
   8.2500000000000004E-003    -6.2197508099414257E-032
   8.6250000000000007E-003    -2.0164761098373941E-030
   9.0000000000000011E-003     2.5738457568759300E-030
   9.3750000000000014E-003     5.8309530888588217E-029
   9.7500000000000017E-003    -2.8498574646046687E-028
   1.0125000000000002E-002     6.9180123041186340E-029
   1.0500000000000002E-002     5.0217620663426475E-027
   1.0875000000000003E-002    -3.1954764570705035E-026
   1.1250000000000003E-002     1.2848013367148729E-025
   1.1625000000000003E-002    -4.5271107547560228E-025
   1.2000000000000000E-002     2.7283842431688431E-024
   1.2375000000000001E-002     8.8507942629125781E-024
   1.2750000000000001E-002     3.5575260870441426E-023
   1.3125000000000001E-002     1.3223851189674837E-022
   1.3500000000000002E-002     5.0090492506753048E-022
   1.3875000000000002E-002     1.8499252323203683E-021
   1.4250000000000002E-002     6.7176960800119333E-021
   1.4625000000000003E-002     2.3945927944064218E-020
   1.5000000000000003E-002     8.3811366558093673E-020
   1.5375000000000003E-002     2.8800790812534151E-019
   1.5750000000000004E-002     9.7170005153775704E-019
   1.6125000000000000E-002     3.2186525701333180E-018
   1.6500000000000001E-002     1.0467139350846199E-017
   1.6875000000000001E-002     3.3418109175626688E-017
   1.7250000000000001E-002     1.0474391954202748E-016
   1.7625000000000002E-002     3.2229817218952265E-016
   1.8000000000000002E-002     9.7354918134292916E-016
   1.8375000000000002E-002     2.8868410279133895E-015
   1.8750000000000003E-002     8.4030397993882110E-015
   1.9125000000000003E-002     2.4009946269512243E-014
   1.9500000000000003E-002     6.7339969674106931E-014
   1.9875000000000004E-002     1.8538139747197854E-013
   2.0250000000000004E-002     5.0091221461643591E-013
   2.0625000000000004E-002     1.3284353999435820E-012
   2.1000000000000005E-002     3.4577110205591028E-012
   2.1375000000000005E-002     8.8326085805055197E-012
   2.1750000000000005E-002     2.2142339456701742E-011
   2.2125000000000006E-002     5.4471965187813591E-011
   2.2499999999999999E-002     1.3149787832396848E-010
   2.2875000000000000E-002     3.1148283003616231E-010
   2.3250000000000000E-002     7.2394086193463420E-010
   2.3625000000000000E-002     1.6507835988243345E-009
   2.4000000000000000E-002     3.6929947985104574E-009
   2.4375000000000001E-002     8.1046151396521138E-009
   2.4750000000000001E-002     1.7447073342393975E-008
   2.5125000000000001E-002     3.6839648764681702E-008
   2.5500000000000002E-002     7.6291007468733796E-008
   2.5875000000000002E-002     1.5493685666242986E-007
   2.6250000000000002E-002     3.0854433330553387E-007
   2.6625000000000003E-002     6.0243845396053440E-007
   2.7000000000000003E-002     1.1531530368047041E-006
   2.7375000000000003E-002     2.1636661980640379E-006
   2.7750000000000004E-002     3.9787097386212217E-006
   2.8125000000000004E-002     7.1695507648162870E-006
   2.8500000000000004E-002     1.2657469738466899E-005
   2.8875000000000005E-002     2.1889071852505154E-005
   2.9250000000000005E-002     3.7071067849574061E-005
   2.9625000000000005E-002     6.1468810663098703E-005
   3.0000000000000006E-002     9.9763142828287161E-005
   3.0375000000000006E-002     1.5842904431726017E-004
   3.0750000000000000E-002     2.4608543558047701E-004
   3.1125000000000000E-002     3.7371670905708015E-004
   3.1500000000000000E-002     5.5459281201944975E-004
   3.1875000000000001E-002     8.0379018667630741E-004
   3.2250000000000001E-002     1.1369317581866379E-003
   3.2625000000000001E-002     1.5681570472176223E-003
   3.3000000000000002E-002     2.1069662575813070E-003
   3.3375000000000002E-002     2.7542306204746776E-003
   3.3750000000000002E-002     3.4973012596383893E-003
   3.4125000000000003E-002     4.3046965806049931E-003
   3.4500000000000003E-002     5.1225321177797416E-003
   3.4875000000000003E-002     5.8709024787673668E-003
   3.5250000000000004E-002     6.4461227506790461E-003
   3.5625000000000004E-002     6.7253048008800841E-003
   3.6000000000000004E-002     6.5785018079756938E-003
   3.6375000000000005E-002     5.8844990961089173E-003
   3.6750000000000005E-002     4.5538787501110635E-003
   3.7125000000000005E-002     2.5510802285869968E-003
   3.7500000000000006E-002    -8.3261519606337206E-005
   3.7875000000000006E-002    -3.2174568804704345E-003
   3.8250000000000006E-002    -6.6269930250866206E-003
   3.8625000000000007E-002    -1.0008195690122746E-002
   3.9000000000000000E-002    -1.3010045108707421E-002
   3.9375000000000000E-002    -1.5284586801759377E-002
   3.9750000000000001E-002    -1.6548166691673447E-002
   4.0125000000000001E-002    -1.6648905309338755E-002
   4.0500000000000001E-002    -1.5614837259236521E-002
   4.0875000000000002E-002    -1.3703253410739377E-002
   4.1250000000000002E-002    -1.1383314612912277E-002
   4.1625000000000002E-002    -9.3152991615723518E-003
   4.2000000000000003E-002    -8.2597539376668659E-003
   4.2375000000000003E-002    -8.9718399038052239E-003
   4.2750000000000003E-002    -1.2069223060994538E-002
   4.3125000000000004E-002    -1.7895307176045806E-002
   4.3500000000000004E-002    -2.6430187143148244E-002
   4.3875000000000004E-002    -3.7203689318137077E-002
   4.4250000000000005E-002    -4.9321283885347150E-002
   4.4625000000000005E-002    -6.1492772533448731E-002
   4.5000000000000005E-002    -7.2193949954819064E-002
   4.5375000000000006E-002    -7.9784755050658046E-002
   4.5750000000000006E-002    -8.2757875317149815E-002
   4.6125000000000006E-002    -7.9861929915558211E-002
   4.6500000000000007E-002    -7.0304759102753953E-002
   4.6875000000000007E-002    -5.3831428736514239E-002
   4.7250000000000000E-002    -3.0765766291395019E-002
   4.7625000000000001E-002    -1.9989054525689411E-003
   4.8000000000000001E-002     3.1120450694763234E-002
   4.8375000000000001E-002     6.6887313374402652E-002
   4.8750000000000002E-002    0.10337971017401559     
   4.9125000000000002E-002    0.13863166831371299     
   4.9500000000000002E-002    0.17073038667962273     
   4.9875000000000003E-002    0.19790787937677778     
   5.0250000000000003E-002    0.21864671742208719     
   5.0625000000000003E-002    0.23166936921335779     
   5.1000000000000004E-002    0.23599905028054113     
   5.1375000000000004E-002    0.23099245501721133     
   5.1750000000000004E-002    0.21632559353669961     
   5.2125000000000005E-002    0.19210984895804312     
   5.2500000000000005E-002    0.15887521953716327     
   5.2875000000000005E-002    0.11768459605698539     
   5.3250000000000006E-002     7.0128745641043932E-002
   5.3625000000000006E-002     1.8308884651192563E-002
   5.4000000000000006E-002    -3.5171190545577893E-002
   5.4375000000000007E-002    -8.7455806878732306E-002
   5.4750000000000007E-002   -0.13552424550495279     
   5.5125000000000007E-002   -0.17654509090293252     
   5.5500000000000008E-002   -0.20810915452789530     
   5.5875000000000008E-002   -0.22849813819584108     
   5.6250000000000008E-002   -0.23692687838314130     
   5.6625000000000009E-002   -0.23355847901489341     
   5.7000000000000009E-002   -0.21958994797034376     
   5.7375000000000009E-002   -0.19702059497937008     
   5.7750000000000010E-002   -0.16842717331722798     
   5.8125000000000010E-002   -0.13664287345846010     
   5.8500000000000010E-002   -0.10438334421351730     
   5.8875000000000011E-002    -7.3903583465586037E-002
   5.9250000000000011E-002    -4.6848427792673786E-002
   5.9624999999999997E-002    -2.3995302079036353E-002
   5.9999999999999998E-002    -5.4301082140639717E-003
   6.0374999999999998E-002     9.4361564543300105E-003
   6.0749999999999998E-002     2.1559380197594520E-002
   6.1124999999999999E-002     3.1947973824745110E-002
   6.1499999999999999E-002     4.1496114898772689E-002
   6.1874999999999999E-002     5.0584646777732389E-002
   6.2250000000000000E-002     5.9116139343711682E-002
   6.2625000000000000E-002     6.6422474779244498E-002
   6.3000000000000000E-002     7.1364929974514726E-002
   6.3375000000000001E-002     7.2630013737600613E-002
   6.3750000000000001E-002     6.8901435519799784E-002
   6.4125000000000001E-002     5.9223308417891585E-002
   6.4500000000000002E-002     4.3257798524469163E-002
   6.4875000000000002E-002     2.1405522777165127E-002
   6.5250000000000002E-002    -5.0212153696169584E-003
   6.5625000000000003E-002    -3.3917208387644636E-002
   6.6000000000000003E-002    -6.2511552118699742E-002
   6.6375000000000003E-002    -8.7666655408174685E-002
   6.6750000000000004E-002   -0.10627143263833980     
   6.7125000000000004E-002   -0.11558700434048716     
   6.7500000000000004E-002   -0.11372361533409067     
   6.7875000000000005E-002    -9.9954595120842940E-002
   6.8250000000000005E-002    -7.4887435787633530E-002
   6.8625000000000005E-002    -4.0622280176405304E-002
   6.9000000000000006E-002    -5.0581034371768342E-004
   6.9375000000000006E-002     4.1164984405799659E-002
   6.9750000000000006E-002     7.9599164484793761E-002
   7.0125000000000007E-002    0.11022719423728684     
   7.0500000000000007E-002    0.12929820401402245     
   7.0875000000000007E-002    0.13437997751250241     
   7.1250000000000008E-002    0.12495389160930903     
   7.1625000000000008E-002    0.10233018334405439     
   7.2000000000000008E-002     6.9726748129201821E-002
   7.2375000000000009E-002     3.1782587989951996E-002
   7.2750000000000009E-002    -6.1388189382260375E-003
   7.3125000000000009E-002    -3.8501180577582589E-002
   7.3500000000000010E-002    -6.0681347012976422E-002
   7.3875000000000010E-002    -6.9272519061295473E-002
   7.4250000000000010E-002    -6.2845766939750553E-002
   7.4625000000000011E-002    -4.1911783188634449E-002
   7.5000000000000011E-002    -8.8419095480305829E-003
   7.5375000000000011E-002     3.2408953443087120E-002
   7.5750000000000012E-002     7.7180751871396558E-002
   7.6124999999999998E-002    0.12041884358102831     
   7.6499999999999999E-002    0.15763800820258533     
   7.6874999999999999E-002    0.18526658881302915     
   7.7249999999999999E-002    0.20107125757058242     
   7.7625000000000000E-002    0.20419321987251285     
   7.8000000000000000E-002    0.19509789861819982     
   7.8375000000000000E-002    0.17521526138077737     
   7.8750000000000001E-002    0.14659925090971232     
   7.9125000000000001E-002    0.11156190644004657     
   7.9500000000000001E-002     7.2201963497831562E-002
   7.9875000000000002E-002     3.0421496256871405E-002
   8.0250000000000002E-002    -1.2329353542566354E-002
   8.0625000000000002E-002    -5.4780882301690773E-002
   8.1000000000000003E-002    -9.5773447493641028E-002
   8.1375000000000003E-002   -0.13402488493783996     
   8.1750000000000003E-002   -0.16786669412691443     
   8.2125000000000004E-002   -0.19551583003159906     
   8.2500000000000004E-002   -0.21486898669947763     
   8.2875000000000004E-002   -0.22412470239521268     
   8.3250000000000005E-002   -0.22206221835486839     
   8.3625000000000005E-002   -0.20844025353511886     
   8.4000000000000005E-002   -0.18443466505149425     
   8.4375000000000006E-002   -0.15265143527620179     
   8.4750000000000006E-002   -0.11698427209228590     
   8.5125000000000006E-002    -8.2226823352247930E-002
   8.5500000000000007E-002    -5.3366845203849142E-002
   8.5875000000000007E-002    -3.4651884048597384E-002
   8.6250000000000007E-002    -2.9083041571068561E-002
   8.6625000000000008E-002    -3.7509043322194693E-002
   8.7000000000000008E-002    -5.8555752212796713E-002
   8.7375000000000008E-002    -8.8553587666618083E-002
   8.7750000000000009E-002   -0.12209078580922622     
   8.8125000000000009E-002   -0.15277363911619515     
   8.8500000000000009E-002   -0.17405602117368249     
   8.8875000000000010E-002   -0.18041027675415064     
   8.9250000000000010E-002   -0.16785655260115367     
   8.9625000000000010E-002   -0.13474158841934530     
   9.0000000000000011E-002    -8.1764730568565980E-002
   9.0375000000000011E-002    -1.1788417848981908E-002
   9.0750000000000011E-002     7.0552539915162249E-002
   9.1125000000000012E-002    0.15959621550915509     
   9.1500000000000012E-002    0.24938878144452198     
   9.1875000000000012E-002    0.33429456992582662     
   9.2250000000000013E-002    0.40951765844019411     
   9.2624999999999999E-002    0.47148244914778448     
   9.2999999999999999E-002    0.51773720390353972     
   9.3375000000000000E-002    0.54701752137650428     
   9.3750000000000000E-002    0.55897607458856491     
   9.4125000000000000E-002    0.55386195765931179     
   9.4500000000000001E-002    0.53239493711795549     
   9.4875000000000001E-002    0.49542451653054409     
   9.5250000000000001E-002    0.44388618680925040     
   9.5625000000000002E-002    0.37860719041711155     
   9.6000000000000002E-002    0.30038762740607006     
   9.6375000000000002E-002    0.20985752445194827     
   9.6750000000000003E-002    0.10758086450781817     
   9.7125000000000003E-002    -5.8535953587016826E-003
   9.7500000000000003E-002   -0.12958256347757707     
   9.7875000000000004E-002   -0.26243210239213188     
   9.8250000000000004E-002   -0.40218517019855482     
   9.8625000000000004E-002   -0.54552684834405496     
   9.9000000000000005E-002   -0.68762597030091488     
   9.9375000000000005E-002   -0.82176707304500518     
   9.9750000000000005E-002   -0.93974791148642201     
  0.10012500000000001         -1.0320358930076119     
  0.10050000000000001         -1.0885232302178838     
  0.10087500000000001         -1.0999449011118771     
  0.10125000000000001         -1.0586730609915163     
  0.10162500000000001        -0.96044956829079364     
  0.10200000000000001        -0.80519525057114349     
  0.10237500000000001        -0.59792543804470100     
  0.10275000000000001        -0.34886392373308200     
  0.10312500000000001         -7.2756500101645000E-002
  0.10350000000000001         0.21194107803511028     
  0.10387500000000001         0.48510602791257862     
  0.10425000000000001         0.72669903777221756     
  0.10462500000000001         0.91891062478050900     
  0.10500000000000001          1.0481777147493858     
  0.10537500000000001          1.1064647022308203     
  0.10575000000000001          1.0919081202397889     
  0.10612500000000001          1.0094346027333547     
  0.10650000000000001         0.86941474688954579     
  0.10687500000000001         0.68683800481214885     
  0.10725000000000001         0.47944523052108190     
  0.10762500000000001         0.26587197496293846     
  0.10800000000000001          6.3632940482791778E-002
  0.10837500000000001        -0.11222093015059376     
  0.10875000000000001        -0.25048260265264560     
  0.10912500000000000        -0.34450058767050451     
  0.10950000000000000        -0.39200008007463638     
  0.10987500000000000        -0.39485179333613429     
  0.11025000000000000        -0.35851201498489937     
  0.11062500000000001        -0.29059738191170559     
  0.11100000000000000        -0.20037713126733120     
  0.11137500000000002         -9.7583670376083481E-002
  0.11175000000000000          8.5322852907584595E-003
  0.11212500000000002         0.10932628706898563     
  0.11250000000000000         0.19738667417324013     
  0.11287500000000002         0.26695607916728886     
  0.11325000000000000         0.31356236433238571     
  0.11362500000000002         0.33453208327929790     
  0.11400000000000000         0.32886250914078702     
  0.11437500000000002         0.29734043909875724     
  0.11475000000000000         0.24247765510339447     
  0.11512500000000002         0.16850519099299702     
  0.11550000000000001          8.1061342042969955E-002
  0.11587500000000002         -1.3283757712940228E-002
  0.11625000000000001        -0.10737091176302016     
  0.11662500000000002        -0.19427592823006040     
  0.11700000000000001        -0.26806547979098194     
  0.11737499999999999        -0.32398675919197606     
  0.11775000000000001        -0.35945848502101641     
  0.11812499999999999        -0.37380155985681252     
  0.11850000000000001        -0.36836946463950615     
  0.11887499999999999        -0.34638161715894844     
  0.11925000000000001        -0.31190150118635257     
  0.11962500000000000        -0.26979352048901528     
  0.12000000000000001        -0.22473851683476098     
  0.12037500000000000        -0.18057717062052245     
  0.12075000000000001        -0.14024815226913828     
  0.12112500000000000        -0.10536339867082734     
  0.12150000000000001         -7.6160229314589767E-002
  0.12187500000000000         -5.2174348777645443E-002
  0.12225000000000001         -3.2066902087490357E-002
  0.12262500000000000         -1.4556486432557636E-002
  0.12300000000000001          1.6152280147411152E-003
  0.12337500000000000          1.7048654786325373E-002
  0.12375000000000001          3.1777891658022632E-002
  0.12412500000000000          4.5414835036716783E-002
  0.12450000000000001          5.7053628431034523E-002
  0.12487500000000000          6.5718310845027730E-002
  0.12525000000000003          7.0840897962392485E-002
  0.12562499999999999          7.2115034463535344E-002
  0.12600000000000000          6.9918554813587469E-002
  0.12637500000000002          6.5257208004035949E-002
  0.12675000000000003          5.9430131747643541E-002
  0.12712499999999999          5.4091616847219207E-002
  0.12750000000000000          5.0696080573424160E-002
  0.12787500000000002          5.0313435467913468E-002
  0.12825000000000003          5.3561135307599976E-002
  0.12862499999999999          6.0326398592228381E-002
  0.12900000000000000          6.9851419058096192E-002
  0.12937500000000002          8.0836609747024252E-002
  0.12975000000000003          9.1649660262555707E-002
  0.13012499999999999         0.10020178408378767     
  0.13050000000000000         0.10470425730356819     
  0.13087500000000002         0.10328084144653386     
  0.13125000000000003          9.4442972730324398E-002
  0.13162499999999999          7.7576689719244640E-002
  0.13200000000000001          5.2936778527659545E-002
  0.13237500000000002          2.2250225409761078E-002
  0.13275000000000003         -1.0886054499543836E-002
  0.13312499999999999         -4.1201622092199318E-002
  0.13350000000000001         -6.1642171854031584E-002
  0.13387500000000002         -6.4310914372255862E-002
  0.13424999999999998         -4.1839522262719836E-002
  0.13462499999999999          1.1087332702336902E-002
  0.13500000000000001          9.5528227751143557E-002
  0.13537500000000002         0.20673264160156171     
  0.13574999999999998         0.33314083376326847     
  0.13612500000000000         0.45635344859580451     
  0.13650000000000001         0.55309702112848413     
  0.13687500000000002         0.59816177125953218     
  0.13724999999999998         0.56875222719349305     
  0.13762500000000000         0.44942723253754802     
  0.13800000000000001         0.23642525980589701     
  0.13837500000000003         -5.9321632322172746E-002
  0.13874999999999998        -0.41131975573874968     
  0.13912500000000000        -0.77943811171375355     
  0.13950000000000001         -1.1147856807874659     
  0.13987500000000003         -1.3660060161658036     
  0.14024999999999999         -1.4875225248958461     
  0.14062500000000000         -1.4470921663966130     
  0.14100000000000001         -1.2317378227013585     
  0.14137500000000003        -0.85139103564476803     
  0.14174999999999999        -0.33876580718885652     
  0.14212500000000000         0.25420350713970408     
  0.14250000000000002         0.86233019990249127     
  0.14287500000000003          1.4157880587690492     
  0.14324999999999999          1.8493028957165250     
  0.14362500000000000          2.1097754504635149     
  0.14400000000000002          2.1635772040951999     
  0.14437500000000003          1.9996675300601510     
  0.14474999999999999          1.6309265494198661     
  0.14512500000000000          1.0915962328075435     
  0.14550000000000002         0.43301452787796380     
  0.14587500000000003        -0.28272959252839724     
  0.14624999999999999        -0.98971423121403634     
  0.14662500000000001         -1.6250597162498339     
  0.14700000000000002         -2.1347950582074642     
  0.14737500000000003         -2.4785977180729519     
  0.14774999999999999         -2.6322047585726276     
  0.14812500000000001         -2.5885578218928549     
  0.14850000000000002         -2.3570083566226669     
  0.14887500000000004         -1.9610457150461631     
  0.14924999999999999         -1.4353143520449487     
  0.14962500000000001        -0.82170047133730373     
  0.15000000000000002        -0.16570593159624170     
  0.15037499999999998         0.48748966203633604     
  0.15075000000000000          1.0959847109839340     
  0.15112500000000001          1.6236793706988606     
  0.15150000000000002          2.0424403701655360     
  0.15187499999999998          2.3327638999708915     
  0.15225000000000000          2.4841801169218161     
  0.15262500000000001          2.4955114474560669     
  0.15300000000000002          2.3733848094711099     
  0.15337499999999998          2.1313227849720366     
  0.15375000000000000          1.7889081363597858     
  0.15412500000000001          1.3691160833877554     
  0.15450000000000003         0.89755215591474569     
  0.15487499999999998         0.40084673151469241     
  0.15525000000000000         -9.5525518139848109E-002
  0.15562500000000001        -0.56747873106221292     
  0.15600000000000003        -0.99387591528029096     
  0.15637499999999999         -1.3573040671025476     
  0.15675000000000000         -1.6444370498468808     
  0.15712500000000001         -1.8461496541836515     
  0.15750000000000003         -1.9580165207564106     
  0.15787499999999999         -1.9798920052200888     
  0.15825000000000000         -1.9151702783075129     
  0.15862500000000002         -1.7714763882291020     
  0.15900000000000003         -1.5586594709643342     
  0.15937499999999999         -1.2890055884922571     
  0.15975000000000000        -0.97660771635059307     
  0.16012500000000002        -0.63597259809126405     
  0.16050000000000003        -0.28205513951945460     
  0.16087499999999999          7.0696705915176739E-002
  0.16125000000000000         0.40884292850022963     
  0.16162500000000002         0.72027223348154101     
  0.16200000000000003         0.99462599053609124     
  0.16237499999999999          1.2234968053228101     
  0.16275000000000001          1.4007020475084200     
  0.16312500000000002          1.5222942705161662     
  0.16350000000000003          1.5862016236325611     
  0.16387499999999999          1.5929042801629518     
  0.16425000000000001          1.5444556401578975     
  0.16462500000000002          1.4446581370455205     
  0.16500000000000004          1.2989116901314102     
  0.16537499999999999          1.1135929209989457     
  0.16575000000000001         0.89621774249211894     
  0.16612500000000002         0.65477942893415286     
  0.16650000000000004         0.39766454807430374     
  0.16687500000000000         0.13341985070619811     
  0.16725000000000001        -0.12966543863096638     
  0.16762500000000002        -0.38347417253886174     
  0.16799999999999998        -0.62072009851102394     
  0.16837500000000000        -0.83507540502045419     
  0.16875000000000001         -1.0206295276582433     
  0.16912500000000003         -1.1730152488410184     
  0.16949999999999998         -1.2889858443901208     
  0.16987500000000000         -1.3662159501000710     
  0.17025000000000001         -1.4038492664845084     
  0.17062500000000003         -1.4021566460688204     
  0.17099999999999999         -1.3623052496291499     
  0.17137500000000000         -1.2868582957791233     
  0.17175000000000001         -1.1789952012952698     
  0.17212500000000003         -1.0426928296276665     
  0.17249999999999999        -0.88262039868921383     
  0.17287500000000000        -0.70372267390040899     
  0.17325000000000002        -0.51123891950894795     
  0.17362500000000003        -0.31044413121128145     
  0.17399999999999999        -0.10655551688764872     
  0.17437500000000000          9.5483358148352987E-002
  0.17475000000000002         0.29078468156321208     
  0.17512500000000003         0.47523526481524136     
  0.17549999999999999         0.64474303058858240     
  0.17587500000000000         0.79610565094500152     
  0.17625000000000002         0.92633881688335251     
  0.17662500000000003          1.0331670913243094     
  0.17699999999999999          1.1149748592172903     
  0.17737500000000000          1.1706669859069383     
  0.17775000000000002          1.1995440037884180     
  0.17812500000000003          1.2018851522789502     
  0.17849999999999999          1.1781103111665112     
  0.17887500000000001          1.1294714788252009     
  0.17925000000000002          1.0576902463882436     
  0.17962500000000003         0.96477061986512691     
  0.17999999999999999         0.85337492558778982     
  0.18037500000000001         0.72657618122951051     
  0.18075000000000002         0.58727233288945335     
  0.18112500000000004         0.43919812195627450     
  0.18149999999999999         0.28548980852658612     
  0.18187500000000001         0.12979207745145538     
  0.18225000000000002         -2.4638160952813723E-002
  0.18262500000000004        -0.17464113422102187     
  0.18300000000000000        -0.31729925358049199     
  0.18337500000000001        -0.45005682822864523     
  0.18375000000000002        -0.57046342796340688     
  0.18412499999999998        -0.67684096198300192     
  0.18450000000000000        -0.76749118266330363     
  0.18487500000000001        -0.84131089495648981     
  0.18525000000000003        -0.89766072337042191     
  0.18562499999999998        -0.93581912859691019     
  0.18600000000000000        -0.95602046027000842     
  0.18637500000000001        -0.95821201911259024     
  0.18675000000000003        -0.94289998959273058     
  0.18712499999999999        -0.91086247922785524     
  0.18750000000000000        -0.86296227067187925     
  0.18787500000000001        -0.80049165630663144     
  0.18825000000000003        -0.72486033062791300     
  0.18862499999999999        -0.63769744085549585     
  0.18900000000000000        -0.54098991470901259     