  -1.4999999999999999E-002     0.0000000000000000     
  -1.4624999999999999E-002     0.0000000000000000     
  -1.4249999999999999E-002     0.0000000000000000     
  -1.3874999999999998E-002     0.0000000000000000     
  -1.3500000000000000E-002     0.0000000000000000     
  -1.3125000000000000E-002     0.0000000000000000     
  -1.2749999999999999E-002     0.0000000000000000     
  -1.2374999999999999E-002     0.0000000000000000     
  -1.2000000000000000E-002     0.0000000000000000     
  -1.1625000000000000E-002     0.0000000000000000     
  -1.1250000000000000E-002     0.0000000000000000     
  -1.0874999999999999E-002     0.0000000000000000     
  -1.0499999999999999E-002     0.0000000000000000     
  -1.0124999999999999E-002     0.0000000000000000     
  -9.7499999999999983E-003     0.0000000000000000     
  -9.3749999999999979E-003     0.0000000000000000     
  -8.9999999999999993E-003     0.0000000000000000     
  -8.6249999999999990E-003     0.0000000000000000     
  -8.2500000000000004E-003     0.0000000000000000     
  -7.8750000000000001E-003     0.0000000000000000     
  -7.4999999999999989E-003     0.0000000000000000     
  -7.1249999999999994E-003     0.0000000000000000     
  -6.7499999999999991E-003     0.0000000000000000     
  -6.3749999999999987E-003     0.0000000000000000     
  -5.9999999999999984E-003     0.0000000000000000     
  -5.6249999999999998E-003     0.0000000000000000     
  -5.2499999999999995E-003     0.0000000000000000     
  -4.8749999999999991E-003     0.0000000000000000     
  -4.4999999999999988E-003     0.0000000000000000     
  -4.1249999999999985E-003     0.0000000000000000     
  -3.7499999999999981E-003     0.0000000000000000     
  -3.3749999999999995E-003     0.0000000000000000     
  -2.9999999999999992E-003     0.0000000000000000     
  -2.6249999999999989E-003     0.0000000000000000     
  -2.2499999999999985E-003     0.0000000000000000     
  -1.8749999999999982E-003     0.0000000000000000     
  -1.4999999999999996E-003     0.0000000000000000     
  -1.1249999999999993E-003     0.0000000000000000     
  -7.4999999999999893E-004     0.0000000000000000     
  -3.7499999999999860E-004     0.0000000000000000     
   1.7347234759768071E-018     0.0000000000000000     
   3.7500000000000207E-004     0.0000000000000000     
   7.5000000000000067E-004     0.0000000000000000     
   1.1250000000000010E-003     0.0000000000000000     
   1.5000000000000013E-003     0.0000000000000000     
   1.8750000000000017E-003     0.0000000000000000     
   2.2500000000000020E-003     0.0000000000000000     
   2.6250000000000023E-003     0.0000000000000000     
   3.0000000000000027E-003     0.0000000000000000     
   3.3750000000000030E-003     0.0000000000000000     
   3.7499999999999999E-003     0.0000000000000000     
   4.1250000000000002E-003     0.0000000000000000     
   4.5000000000000005E-003     0.0000000000000000     
   4.8750000000000009E-003     0.0000000000000000     
   5.2500000000000012E-003     0.0000000000000000     
   5.6250000000000015E-003     0.0000000000000000     
   6.0000000000000019E-003     0.0000000000000000     
   6.3750000000000022E-003     0.0000000000000000     
   6.7500000000000025E-003     0.0000000000000000     
   7.1250000000000029E-003     0.0000000000000000     
   7.5000000000000032E-003     0.0000000000000000     
   7.8750000000000001E-003     0.0000000000000000     
   8.2500000000000004E-003     0.0000000000000000     
   8.6250000000000007E-003     0.0000000000000000     
   9.0000000000000011E-003     0.0000000000000000     
   9.3750000000000014E-003     0.0000000000000000     
   9.7500000000000017E-003     0.0000000000000000     
   1.0125000000000002E-002     0.0000000000000000     
   1.0500000000000002E-002     0.0000000000000000     
   1.0875000000000003E-002     0.0000000000000000     
   1.1250000000000003E-002     0.0000000000000000     
   1.1625000000000003E-002     4.4072995044414642E-038
   1.2000000000000000E-002     5.4272934968409902E-036
   1.2375000000000001E-002     8.7816954945390433E-035
   1.2750000000000001E-002     1.0403005370048364E-033
   1.3125000000000001E-002     3.0516164476748042E-032
   1.3500000000000002E-002     7.5792408276913424E-032
   1.3875000000000002E-002    -1.2311430150077611E-030
   1.4250000000000002E-002    -2.2730401641201238E-030
   1.4625000000000003E-002     4.4157469052527176E-029
   1.5000000000000003E-002    -1.1624075610012321E-028
   1.5375000000000003E-002    -3.9626408598156385E-028
   1.5750000000000004E-002     4.5131499813184846E-027
   1.6125000000000000E-002    -2.2350498264938536E-026
   1.6500000000000001E-002     8.0883904987753091E-026
   1.6875000000000001E-002    -2.7490379607794491E-025
   1.7250000000000001E-002     1.9920129695654833E-024
   1.7625000000000002E-002     6.6372804563190710E-024
   1.8000000000000002E-002     2.6406056384792878E-023
   1.8375000000000002E-002     9.8421383765320105E-023
   1.8750000000000003E-002     3.7208722586573106E-022
   1.9125000000000003E-002     1.3739415194866126E-021
   1.9500000000000003E-002     4.9844200994735004E-021
   1.9875000000000004E-002     1.7753654228301380E-020
   2.0250000000000004E-002     6.2087133840838956E-020
   2.0625000000000004E-002     2.1318360468856604E-019
   2.1000000000000005E-002     7.1867923386875167E-019
   2.1375000000000005E-002     2.3786798983049240E-018
   2.1750000000000005E-002     7.7295114100238611E-018
   2.2125000000000006E-002     2.4658913504995470E-017
   2.2499999999999999E-002     7.7230749219323268E-017
   2.2875000000000000E-002     2.3746432194255038E-016
   2.3250000000000000E-002     7.1677210336491067E-016
   2.3625000000000000E-002     2.1238902147154601E-015
   2.4000000000000000E-002     6.1778999616247139E-015
   2.4375000000000001E-002     1.7639766542654229E-014
   2.4750000000000001E-002     4.9440442241862404E-014
   2.5125000000000001E-002     1.3601529807239268E-013
   2.5500000000000002E-002     3.6728546184810630E-013
   2.5875000000000002E-002     9.7344170987413385E-013
   2.6250000000000002E-002     2.5321760075043238E-012
   2.6625000000000003E-002     6.4645681600386881E-012
   2.7000000000000003E-002     1.6196816985082092E-011
   2.7375000000000003E-002     3.9823993011723808E-011
   2.7750000000000004E-002     9.6087184126864436E-011
   2.8125000000000004E-002     2.2749475495208752E-010
   2.8500000000000004E-002     5.2849487013421179E-010
   2.8875000000000005E-002     1.2046148124361472E-009
   2.9250000000000005E-002     2.6938312710124927E-009
   2.9625000000000005E-002     5.9098940871591979E-009
   3.0000000000000006E-002     1.2718630241703059E-008
   3.0375000000000006E-002     2.6849115989368163E-008
   3.0750000000000000E-002     5.5591281093213168E-008
   3.1125000000000000E-002     1.1288602624263808E-007
   3.1500000000000000E-002     2.2479161740275192E-007
   3.1875000000000001E-002     4.3892926579348364E-007
   3.2250000000000001E-002     8.4028313663857141E-007
   3.2625000000000001E-002     1.5769836872091139E-006
   3.3000000000000002E-002     2.9009247024794499E-006
   3.3375000000000002E-002     5.2299515469084472E-006
   3.3750000000000002E-002     9.2392876050533025E-006
   3.4125000000000003E-002     1.5991082168632788E-005
   3.4500000000000003E-002     2.7110464426612337E-005
   3.4875000000000003E-002     4.5011070901697836E-005
   3.5250000000000004E-002     7.3167022930578266E-005
   3.5625000000000004E-002     1.1641404151463967E-004
   3.6000000000000004E-002     1.8124561789329351E-004
   3.6375000000000005E-002     2.7601039545536944E-004
   3.6750000000000005E-002     4.1097939535798670E-004
   3.7125000000000005E-002     5.9806273937437890E-004
   3.7500000000000006E-002     8.5008949867676877E-004
   3.7875000000000006E-002     1.1795078486002602E-003
   3.8250000000000006E-002     1.5963539503964369E-003
   3.8625000000000007E-002     2.1055115830224940E-003
   3.9000000000000000E-002     2.7034739410955015E-003
   3.9375000000000000E-002     3.3745811839789672E-003
   3.9750000000000001E-002     4.0882946187445219E-003
   4.0125000000000001E-002     4.7966946875474207E-003
   4.0500000000000001E-002     5.4345983396023954E-003
   4.0875000000000002E-002     5.9233407579494246E-003
   4.1250000000000002E-002     6.1762849507471379E-003
   4.1625000000000002E-002     6.1098993572360726E-003
   4.2000000000000003E-002     5.6574995288129135E-003
   4.2375000000000003E-002     4.7841914856209655E-003
   4.2750000000000003E-002     3.4993315651405572E-003
   4.3125000000000004E-002     1.8695092267257557E-003
   4.3500000000000004E-002     1.8290255451497862E-005
   4.3875000000000004E-002    -1.8800924937633764E-003
   4.4250000000000005E-002    -3.6183788402204473E-003
   4.4625000000000005E-002    -4.9897073554462015E-003
   4.5000000000000005E-002    -5.8189732602499534E-003
   4.5375000000000006E-002    -6.0092563590444636E-003
   4.5750000000000006E-002    -5.5680977087216640E-003
   4.6125000000000006E-002    -4.6373717191291464E-003
   4.6500000000000007E-002    -3.4873798453205406E-003
   4.6875000000000007E-002    -2.5015911397165084E-003
   4.7250000000000000E-002    -2.1292950400094842E-003
   4.7625000000000001E-002    -2.8188255517815966E-003
   4.8000000000000001E-002    -4.9532568224885682E-003
   4.8375000000000001E-002    -8.7576236813953837E-003
   4.8750000000000002E-002    -1.4265775324472103E-002
   4.9125000000000002E-002    -2.1262488248394697E-002
   4.9500000000000002E-002    -2.9298615253759749E-002
   4.9875000000000003E-002    -3.7721212062616111E-002
   5.0250000000000003E-002    -4.5742432227428895E-002
   5.0625000000000003E-002    -5.2527151286102386E-002
   5.1000000000000004E-002    -5.7301076013020369E-002
   5.1375000000000004E-002    -5.9433617576663572E-002
   5.1750000000000004E-002    -5.8522477773046366E-002
   5.2125000000000005E-002    -5.4432725025516618E-002
   5.2500000000000005E-002    -4.7299616581822079E-002
   5.2875000000000005E-002    -3.7514798418259339E-002
   5.3250000000000006E-002    -2.5649877638099672E-002
   5.3625000000000006E-002    -1.2392879331936085E-002
   5.4000000000000006E-002     1.5365318853154016E-003
   5.4375000000000007E-002     1.5468387875694947E-002
   5.4750000000000007E-002     2.8842531381081310E-002
   5.5125000000000007E-002     4.1234691937308873E-002
   5.5500000000000008E-002     5.2385516324494702E-002
   5.5875000000000008E-002     6.2168687280658552E-002
   5.6250000000000008E-002     7.0580755285017366E-002
   5.6625000000000009E-002     7.7684147569019202E-002
   5.7000000000000009E-002     8.3558968551134982E-002
   5.7375000000000009E-002     8.8303892755594193E-002
   5.7750000000000010E-002     9.1957589529759437E-002
   5.8125000000000010E-002     9.4523613269740764E-002
   5.8500000000000010E-002     9.5964069124824386E-002
   5.8875000000000011E-002     9.6190979243147484E-002
   5.9250000000000011E-002     9.5102970514814505E-002
   5.9624999999999997E-002     9.2590996403896703E-002
   5.9999999999999998E-002     8.8545785997901805E-002
   6.0374999999999998E-002     8.2852309638765997E-002
   6.0749999999999998E-002     7.5421764656003948E-002
   6.1124999999999999E-002     6.6142760153197117E-002
   6.1499999999999999E-002     5.4933440878644074E-002
   6.1874999999999999E-002     4.1707692188658954E-002
   6.2250000000000000E-002     2.6433539507682978E-002
   6.2625000000000000E-002     9.1606327475819288E-003
   6.3000000000000000E-002    -9.9438601956887973E-003
   6.3375000000000001E-002    -3.0544280500926196E-002
   6.3750000000000001E-002    -5.2092335842843868E-002
   6.4125000000000001E-002    -7.3828730245344726E-002
   6.4500000000000002E-002    -9.4806234976959808E-002
   6.4875000000000002E-002   -0.11391472419017645     
   6.5250000000000002E-002   -0.12999694229237629     
   6.5625000000000003E-002   -0.14193355124298035     
   6.6000000000000003E-002   -0.14877098330379296     
   6.6375000000000003E-002   -0.14982934845597301     
   6.6750000000000004E-002   -0.14477122149380495     
   6.7125000000000004E-002   -0.13366607758349405     
   6.7500000000000004E-002   -0.11701550510008751     
   6.7875000000000005E-002    -9.5626381335733562E-002
   6.8250000000000005E-002    -7.0657919265342248E-002
   6.8625000000000005E-002    -4.3454918023498948E-002
   6.9000000000000006E-002    -1.5399722571405733E-002
   6.9375000000000006E-002     1.2059216933299324E-002
   6.9750000000000006E-002     3.7594073536339451E-002
   7.0125000000000007E-002     6.0043247821773088E-002
   7.0500000000000007E-002     7.8351268221843767E-002
   7.0875000000000007E-002     9.1726441348154997E-002
   7.1250000000000008E-002     9.9525282673417148E-002
   7.1625000000000008E-002    0.10132740110982338     
   7.2000000000000008E-002     9.6946409839516079E-002
   7.2375000000000009E-002     8.6397566238701845E-002
   7.2750000000000009E-002     7.0027706457202993E-002
   7.3125000000000009E-002     4.8423363670654050E-002
   7.3500000000000010E-002     2.2522760126887052E-002
   7.3875000000000010E-002    -6.4267687977848237E-003
   7.4250000000000010E-002    -3.6924726701107219E-002
   7.4625000000000011E-002    -6.7212082219465369E-002
   7.5000000000000011E-002    -9.5458895796600440E-002
   7.5375000000000011E-002   -0.11980920336163103     
   7.5750000000000012E-002   -0.13857281103578101     
   7.6124999999999998E-002   -0.15035228447345350     
   7.6499999999999999E-002   -0.15416117420681180     
   7.6874999999999999E-002   -0.14955859340105276     
   7.7249999999999999E-002   -0.13666058366413655     
   7.7625000000000000E-002   -0.11617834415646081     
   7.8000000000000000E-002    -8.9334191690106493E-002
   7.8375000000000000E-002    -5.7785569574219930E-002
   7.8750000000000001E-002    -2.3391087966947971E-002
   7.9125000000000001E-002     1.1850659750735543E-002
   7.9500000000000001E-002     4.6110199588764833E-002
   7.9875000000000002E-002     7.7812028987990667E-002
   8.0250000000000002E-002    0.10572592261461927     
   8.0625000000000002E-002    0.12913775966363600     
   8.1000000000000003E-002    0.14767604706044463     
   8.1375000000000003E-002    0.16134869528794699     
   8.1750000000000003E-002    0.17037594804908618     
   8.2125000000000004E-002    0.17505646070275277     
   8.2500000000000004E-002    0.17560267570002491     
   8.2875000000000004E-002    0.17207830640580835     
   8.3250000000000005E-002    0.16436044315901677     
   8.3625000000000005E-002    0.15211388956737357     
   8.4000000000000005E-002    0.13496220506542494     
   8.4375000000000006E-002    0.11258528610967142     
   8.4750000000000006E-002     8.4899575081951131E-002
   8.5125000000000006E-002     5.2272588053182842E-002
   8.5500000000000007E-002     1.5571949964226742E-002
   8.5875000000000007E-002    -2.3686196922111907E-002
   8.6250000000000007E-002    -6.3439782596903360E-002
   8.6625000000000008E-002   -0.10111645337980368     
   8.7000000000000008E-002   -0.13392448972199295     
   8.7375000000000008E-002   -0.15905544059580329     
   8.7750000000000009E-002   -0.17403323137440818     
   8.8125000000000009E-002   -0.17701420503466336     
   8.8500000000000009E-002   -0.16708891064084722     
   8.8875000000000010E-002   -0.14444363564596469     
   8.9250000000000010E-002   -0.11048863771996038     
   8.9625000000000010E-002    -6.7829671407010586E-002
   9.0000000000000011E-002    -2.0009770914285782E-002
   9.0375000000000011E-002     2.8671560623662773E-002
   9.0750000000000011E-002     7.3690322358970661E-002
   9.1125000000000012E-002    0.11074894874710212     
   9.1500000000000012E-002    0.13618196669835569     
   9.1875000000000012E-002    0.14756731212241897     
   9.2250000000000013E-002    0.14379051546481872     
   9.2624999999999999E-002    0.12548047993898506     
   9.2999999999999999E-002     9.4717044691941560E-002
   9.3375000000000000E-002     5.4969842415741120E-002
   9.3750000000000000E-002     1.0654437009339809E-002
   9.4125000000000000E-002    -3.3426804934555604E-002
   9.4500000000000001E-002    -7.2560320271685269E-002
   9.4875000000000001E-002   -0.10270841439984207     
   9.5250000000000001E-002   -0.12092872250731138     
   9.5625000000000002E-002   -0.12574999926083893     
   9.6000000000000002E-002   -0.11712660845689996     
   9.6375000000000002E-002    -9.6635074492449943E-002
   9.6750000000000003E-002    -6.7003951059669276E-002
   9.7125000000000003E-002    -3.1968180767458401E-002
   9.7500000000000003E-002     4.2964586029756932E-003
   9.7875000000000004E-002     3.7589815772468477E-002
   9.8250000000000004E-002     6.4127688134718142E-002
   9.8625000000000004E-002     8.1043046710711081E-002
   9.9000000000000005E-002     8.6501492067524999E-002
   9.9375000000000005E-002     8.0107056228135937E-002
   9.9750000000000005E-002     6.2704286749375171E-002
  0.10012500000000001          3.6399416799600154E-002
  0.10050000000000001          4.2651972500159507E-003
  0.10087500000000001         -3.0098893423750467E-002
  0.10125000000000001         -6.2831096601850600E-002
  0.10162500000000001         -9.0445891839958881E-002
  0.10200000000000001        -0.11000864547820588     
  0.10237500000000001        -0.11959005625758853     
  0.10275000000000001        -0.11825454174609115     
  0.10312500000000001        -0.10623596258568568     
  0.10350000000000001         -8.4651237765076742E-002
  0.10387500000000001         -5.5439149854359493E-002
  0.10425000000000001         -2.0986846560707761E-002
  0.10462500000000001          1.6056057621084086E-002
  0.10500000000000001          5.2977757342217380E-002
  0.10537500000000001          8.7315296040487655E-002
  0.10575000000000001         0.11669886949623148     
  0.10612500000000001         0.13921212531352983     
  0.10650000000000001         0.15321335465574332     
  0.10687500000000001         0.15749284335395242     
  0.10725000000000001         0.15134735213174377     
  0.10762500000000001         0.13462971983938174     
  0.10800000000000001         0.10787250721531914     
  0.10837500000000001          7.2319128947580552E-002
  0.10875000000000001          2.9986464740954719E-002
  0.10912500000000000         -1.6471663297271288E-002
  0.10950000000000000         -6.3890670360966517E-002
  0.10987500000000000        -0.10887098411945773     
  0.11025000000000000        -0.14804196342192516     
  0.11062500000000001        -0.17844494535760319     
  0.11100000000000000        -0.19778581888427971     
  0.11137500000000002        -0.20464894957891805     
  0.11175000000000000        -0.19866231154908248     
  0.11212500000000002        -0.18044446991369406     
  0.11250000000000000        -0.15150943060698296     
  0.11287500000000002        -0.11412356243738005     
  0.11325000000000000         -7.1017659570507596E-002
  0.11362500000000002         -2.5093854189878473E-002
  0.11400000000000000          2.0664479352552251E-002
  0.11437500000000002          6.3535755638024050E-002
  0.11475000000000000         0.10110979911432466     
  0.11512500000000002         0.13138402349022021     
  0.11550000000000001         0.15287588240792016     
  0.11587500000000002         0.16460621586596413     
  0.11625000000000001         0.16620424146104279     
  0.11662500000000002         0.15798819450088619     
  0.11700000000000001         0.14093107687322157     
  0.11737499999999999         0.11678663217864699     
  0.11775000000000001          8.8008557410439087E-002
  0.11812499999999999          5.7600089963759718E-002
  0.11850000000000001          2.8999788144037350E-002
  0.11887499999999999          5.6342697581966694E-003
  0.11925000000000001         -9.3796068636281121E-003
  0.11962500000000000         -1.3711776207837090E-002
  0.12000000000000001         -6.2009541890904463E-003
  0.12037500000000000          1.2930054211187772E-002
  0.12075000000000001          4.1797786923273184E-002
  0.12112500000000000          7.7132589987344569E-002
  0.12150000000000001         0.11442669367402458     
  0.12187500000000000         0.14848961717841141     
  0.12225000000000001         0.17404472572398827     
  0.12262500000000000         0.18637844398866801     
  0.12300000000000001         0.18194349670698179     
  0.12337500000000000         0.15884496017093652     
  0.12375000000000001         0.11707818954918958     
  0.12412500000000000          5.8577037196657245E-002
  0.12450000000000001         -1.2980590442160489E-002
  0.12487500000000000         -9.2603014493617519E-002
  0.12525000000000003        -0.17453274607662572     
  0.12562499999999999        -0.25279777124984393     
  0.12600000000000000        -0.32186933006867857     
  0.12637500000000002        -0.37715158012683436     
  0.12675000000000003        -0.41535176952337172     
  0.12712499999999999        -0.43466305408275452     
  0.12750000000000000        -0.43500720966374273     
  0.12787500000000002        -0.41758963871748633     
  0.12825000000000003        -0.38505821137618468     
  0.12862499999999999        -0.34085598015668855     
  0.12900000000000000        -0.28889982685411791     
  0.12937500000000002        -0.23324527883140492     
  0.12975000000000003        -0.17744624929682290     
  0.13012499999999999        -0.12429982912692095     
  0.13050000000000000         -7.5482081656855271E-002
  0.13087500000000002         -3.1443087577300299E-002
  0.13125000000000003          8.7307615308207520E-003
  0.13162499999999999          4.7124455854014091E-002
  0.13200000000000001          8.6642790059835106E-002
  0.13237500000000002         0.13054952830015898     
  0.13275000000000003         0.18202570520929284     
  0.13312499999999999         0.24333946602931977     
  0.13350000000000001         0.31544411532430083     
  0.13387500000000002         0.39749897582304228     
  0.13424999999999998         0.48646927800564121     
  0.13462499999999999         0.57735593965730891     
  0.13500000000000001         0.66333353713610310     
  0.13537500000000002         0.73627208322404925     
  0.13574999999999998         0.78778340386503021     
  0.13612500000000000         0.80979649878702620     
  0.13650000000000001         0.79581811487865806     
  0.13687500000000002         0.74162621482223834     
  0.13724999999999998         0.64591291772930126     
  0.13762500000000000         0.51073667283019741     
  0.13800000000000001         0.34137474423402181     
  0.13837500000000003         0.14607221446314655     
  0.13874999999999998         -6.4633215807824440E-002
  0.13912500000000000        -0.27888820599103137     
  0.13950000000000001        -0.48428052890599815     
  0.13987500000000003        -0.66909093302453004     
  0.14024999999999999        -0.82301676484552289     
  0.14062500000000000        -0.93783778001771223     
  0.14100000000000001         -1.0081029316440335     
  0.14137500000000003         -1.0309545080191236     
  0.14174999999999999         -1.0065692306337446     
  0.14212500000000000        -0.93757908384678568     
  0.14250000000000002        -0.82886000201867527     
  0.14287500000000003        -0.68722834223617013     
  0.14324999999999999        -0.52069441191686883     
  0.14362500000000000        -0.33824713412732110     
  0.14400000000000002        -0.14938431176339539     
  0.14437500000000003          3.6406444284424355E-002
  0.14474999999999999         0.20973453687668575     
  0.14512500000000000         0.36206684870316186     
  0.14550000000000002         0.48575949693866427     
  0.14587500000000003         0.57448617036782479     
  0.14624999999999999         0.62400383563041339     
  0.14662500000000001         0.63206590267008211     
  0.14700000000000002         0.59903990569844190     
  0.14737500000000003         0.52820476491460444     
  0.14774999999999999         0.42522700248180162     
  0.14812500000000001         0.29859219619622873     
  0.14850000000000002         0.15844538292187160     
  0.14887500000000004          1.6038302456360731E-002
  0.14924999999999999        -0.11720940378953426     
  0.14962500000000001        -0.23081045804557687     
  0.15000000000000002        -0.31627118473351068     
  0.15037499999999998        -0.36766823183542169     
  0.15075000000000000        -0.38218898684296604     
  0.15112500000000001        -0.36031465728902834     
  0.15150000000000002        -0.30540299585353969     
  0.15187499999999998        -0.22337671731317449     
  0.15225000000000000        -0.12180247056926924     
  0.15262500000000001         -9.4011925289133602E-003
  0.15300000000000002         0.10487091949852378     
  0.15337499999999998         0.21254267185364684     
  0.15375000000000000         0.30571949189760861     
  0.15412500000000001         0.37825869892491748     
  0.15450000000000003         0.42516902931178380     
  0.15487499999999998         0.44351543448184011     
  0.15525000000000000         0.43257237169192425     
  0.15562500000000001         0.39332063227315922     
  0.15600000000000003         0.32906214460928118     
  0.15637499999999999         0.24518592890958385     
  0.15675000000000000         0.14817517380904294     
  0.15712500000000001          4.5883018492113181E-002
  0.15750000000000003         -5.3601622691424655E-002
  0.15787499999999999        -0.14289628432770718     
  0.15825000000000000        -0.21552165747016067     
  0.15862500000000002        -0.26699637090243106     
  0.15900000000000003        -0.29519138497771197     
  0.15937499999999999        -0.30017202942306098     
  0.15975000000000000        -0.28422564624346802     
  0.16012500000000002        -0.25150302932344837     
  0.16050000000000003        -0.20711765869949361     
  0.16087499999999999        -0.15666767545582760     
  0.16125000000000000        -0.10537773867824875     
  0.16162500000000002         -5.7542126321516188E-002
  0.16200000000000003         -1.6341410471035316E-002
  0.16237499999999999          1.6589335374032170E-002
  0.16275000000000001          4.0776505178289540E-002
  0.16312500000000002          5.6916661999008689E-002
  0.16350000000000003          6.6204928388939321E-002
  0.16387499999999999          7.0083199460989593E-002
  0.16425000000000001          6.9998954881189346E-002
  0.16462500000000002          6.6808117018918325E-002
  0.16500000000000004          6.1164324509221026E-002
  0.16537499999999999          5.3269947326262335E-002
  0.16575000000000001          4.3089540679730559E-002
  0.16612500000000002          3.0844411629073906E-002
  0.16650000000000004          1.6846548281949897E-002
  0.16687500000000000          1.9594195782360185E-003
  0.16725000000000001         -1.2570534258013022E-002
  0.16762500000000002         -2.5300141601280655E-002
  0.16799999999999998         -3.4557597082585448E-002
  0.16837500000000000         -3.9208426847570602E-002
  0.16875000000000001         -3.8583649368859829E-002
  0.16912500000000003         -3.2743953844793894E-002
  0.16949999999999998         -2.2850364450630753E-002
  0.16987500000000000         -1.0628581644757780E-002
  0.17025000000000001          1.6220399705042798E-003
  0.17062500000000003          1.1534111218408742E-002
  0.17099999999999999          1.7138953389079614E-002
  0.17137500000000000          1.7294748426212536E-002
  0.17175000000000001          1.1797296235992932E-002
  0.17212500000000003          1.7202305797217321E-003
  0.17249999999999999         -1.1070404320950016E-002
  0.17287500000000000         -2.3977074752829161E-002
  0.17325000000000002         -3.4285781862791097E-002
  0.17362500000000003         -3.9883658784903020E-002
  0.17399999999999999         -3.9243659884667409E-002
  0.17437500000000000         -3.2295060652713932E-002
  0.17475000000000002         -1.9921071378306260E-002
  0.17512500000000003         -4.2281554312678382E-003
  0.17549999999999999          1.1979977658660851E-002
  0.17587500000000000          2.6011143026689817E-002
  0.17625000000000002          3.5206221172549144E-002
  0.17662500000000003          3.7838673138086337E-002
  0.17699999999999999          3.3421319273402743E-002
  0.17737500000000000          2.2339060358505906E-002
  0.17775000000000002          6.0762281085142145E-003
  0.17812500000000003         -1.3035716760335131E-002
  0.17849999999999999         -3.2712961257345990E-002
  0.17887500000000001         -5.0489047558824440E-002
  0.17925000000000002         -6.4415326343603946E-002
  0.17962500000000003         -7.3325713938760112E-002
  0.17999999999999999         -7.6533892050232519E-002
  0.18037500000000001         -7.4037879056897266E-002
  0.18075000000000002         -6.6388701441821241E-002
  0.18112500000000004         -5.4262342831595131E-002
  0.18149999999999999         -3.8358761664036456E-002
  0.18187500000000001         -1.9609911041405526E-002
  0.18225000000000002          1.4079505399449133E-003
  0.18262500000000004          2.3988372881717873E-002
  0.18300000000000000          4.7160227859520565E-002
  0.18337500000000001          7.0007270689470685E-002
  0.18375000000000002          9.1258609365956200E-002
  0.18412499999999998         0.10950377641119877     
  0.18450000000000000         0.12318303932773059     
  0.18487500000000001         0.13098114084637041     
  0.18525000000000003         0.13195409869818714     
  0.18562499999999998         0.12546123224506206     
  0.18600000000000000         0.11178153903742129     
  0.18637500000000001          9.1737836508343079E-002
  0.18675000000000003          6.6965851500218831E-002
  0.18712499999999999          3.9440059545615067E-002
  0.18750000000000000          1.1988660735660274E-002
  0.18787500000000001         -1.2439671588508040E-002
  0.18825000000000003         -3.0806980979918706E-002
  0.18862499999999999         -3.9948491064309199E-002
  0.18900000000000000         -3.7526589529735199E-002