  -1.4999999999999999E-002     0.0000000000000000     
  -1.4624999999999999E-002    -1.1371001955314992E-036
  -1.4249999999999999E-002    -2.7854769291207524E-033
  -1.3874999999999998E-002     1.3930435709389765E-031
  -1.3500000000000000E-002    -9.3109933671773681E-031
  -1.3125000000000000E-002     6.7273354639490607E-031
  -1.2749999999999999E-002     8.4197985589809719E-030
  -1.2374999999999999E-002    -1.9685362986945060E-029
  -1.2000000000000000E-002    -3.1621147740122060E-029
  -1.1625000000000000E-002     1.6101849723948359E-028
  -1.1250000000000000E-002    -2.1826133970597548E-028
  -1.0874999999999999E-002    -5.3553615554567362E-029
  -1.0499999999999999E-002    -1.4829285803205958E-028
  -1.0124999999999999E-002    -4.3742640983563062E-028
  -9.7499999999999983E-003    -1.8190658104098038E-027
  -9.3749999999999979E-003    -7.6953780830174569E-027
  -8.9999999999999993E-003    -1.5358717580509362E-026
  -8.6249999999999990E-003    -6.7248169279364216E-026
  -8.2500000000000004E-003    -1.3668445153951379E-025
  -7.8750000000000001E-003    -5.0035335413206121E-025
  -7.4999999999999989E-003    -1.2180410682023786E-024
  -7.1249999999999994E-003    -3.4933821716327125E-024
  -6.7499999999999991E-003    -8.8501010673373316E-024
  -6.3749999999999987E-003    -2.2996157512839422E-023
  -5.9999999999999984E-003    -5.6730186467289784E-023
  -5.6249999999999998E-003    -1.3850505019148723E-022
  -5.2499999999999995E-003    -3.2495073795557624E-022
  -4.8749999999999991E-003    -7.4158057199326225E-022
  -4.4999999999999988E-003    -1.6477257499500211E-021
  -4.1249999999999985E-003    -3.5392746064441828E-021
  -3.7499999999999981E-003    -7.2804436895243695E-021
  -3.3749999999999995E-003    -1.4501380044089502E-020
  -2.9999999999999992E-003    -2.7192903799173699E-020
  -2.6249999999999989E-003    -4.9001046774764238E-020
  -2.2499999999999985E-003    -7.9671119384263773E-020
  -1.8749999999999982E-003    -1.1530876116266361E-019
  -1.4999999999999996E-003    -1.1762317487596736E-019
  -1.1249999999999993E-003    -2.1076259199723868E-020
  -7.4999999999999893E-004     5.1511870770305874E-019
  -3.7499999999999860E-004     2.0093811569628000E-018
   1.7347234759768071E-018     6.8193769915064484E-018
   3.7500000000000207E-004     1.9252572163733677E-017
   7.5000000000000067E-004     5.0930793001744824E-017
   1.1250000000000010E-003     1.5189180576588810E-016
   1.5000000000000013E-003     4.2042465249612214E-016
   1.8750000000000017E-003     1.2059592803037461E-015
   2.2500000000000020E-003     3.5607014445032111E-015
   2.6250000000000023E-003     1.0584466337719665E-014
   3.0000000000000027E-003     3.0868364848185085E-014
   3.3750000000000030E-003     9.0122598989845698E-014
   3.7499999999999999E-003     2.6044233744610637E-013
   4.1250000000000002E-003     7.3876428522254491E-013
   4.5000000000000005E-003     2.0572386979625203E-012
   4.8750000000000009E-003     5.6432812203362976E-012
   5.2500000000000012E-003     1.5171531745180792E-011
   5.6250000000000015E-003     4.0082262345595187E-011
   6.0000000000000019E-003     1.0376209023794047E-010
   6.3750000000000022E-003     2.6384713560664550E-010
   6.7500000000000025E-003     6.5786322747400223E-010
   7.1250000000000029E-003     1.6101701841164161E-009
   7.5000000000000032E-003     3.8646454503920924E-009
   7.8750000000000001E-003     9.1032406698783713E-009
   8.2500000000000004E-003     2.1032617518771318E-008
   8.6250000000000007E-003     4.7680017202659352E-008
   9.0000000000000011E-003     1.0601846806321246E-007
   9.3750000000000014E-003     2.3125742632461453E-007
   9.7500000000000017E-003     4.9478306998373009E-007
   1.0125000000000002E-002     1.0383005493537439E-006
   1.0500000000000002E-002     2.1368645043336054E-006
   1.0875000000000003E-002     4.3127120825705231E-006
   1.1250000000000003E-002     8.5348387821090143E-006
   1.1625000000000003E-002     1.6560050516891042E-005
   1.2000000000000000E-002     3.1498964231500887E-005
   1.2375000000000001E-002     5.8727490384284986E-005
   1.2750000000000001E-002     1.0730478172176020E-004
   1.3125000000000001E-002     1.9211152944763210E-004
   1.3500000000000002E-002     3.3694193760177991E-004
   1.3875000000000002E-002     5.7878401616215673E-004
   1.4250000000000002E-002     9.7346329224090849E-004
   1.4625000000000003E-002     1.6026173889306214E-003
   1.5000000000000003E-002     2.5815768902405483E-003
   1.5375000000000003E-002     4.0672731172715273E-003
   1.5750000000000004E-002     6.2641303766236538E-003
   1.6125000000000000E-002     9.4254925419639743E-003
   1.6500000000000001E-002     1.3845851126339822E-002
   1.6875000000000001E-002     1.9839341601674713E-002
   1.7250000000000001E-002     2.7698941010974636E-002
   1.7625000000000002E-002     3.7630270590690185E-002
   1.8000000000000002E-002     4.9658915082926719E-002
   1.8375000000000002E-002     6.3511362095115237E-002
   1.8750000000000003E-002     7.8476599536751304E-002
   1.9125000000000003E-002     9.3273483494883624E-002
   1.9500000000000003E-002    0.10593540160067641     
   1.9875000000000004E-002    0.11377285420216682     
   2.0250000000000004E-002    0.11342564164550994     
   2.0625000000000004E-002    0.10107869040048312     
   2.1000000000000005E-002     7.2837578658963703E-002
   2.1375000000000005E-002     2.5293483164804613E-002
   2.1750000000000005E-002    -4.3767892605406367E-002
   2.2125000000000006E-002   -0.13457471013645406     
   2.2499999999999999E-002   -0.24463957472916087     
   2.2875000000000000E-002   -0.36819157110521006     
   2.3250000000000000E-002   -0.49599031863378751     
   2.3625000000000000E-002   -0.61561738461400395     
   2.4000000000000000E-002   -0.71238031689747983     
   2.4375000000000001E-002   -0.77077595300305668     
   2.4750000000000001E-002   -0.77646257959250664     
   2.5125000000000001E-002   -0.71847870668633940     
   2.5500000000000002E-002   -0.59136442753257645     
   2.5875000000000002E-002   -0.39687708272836042     
   2.6250000000000002E-002   -0.14488765743914866     
   2.6625000000000003E-002    0.14681907152267959     
   2.7000000000000003E-002    0.45393620924953054     
   2.7375000000000003E-002    0.74823494726575923     
   2.7750000000000004E-002     1.0008680486884316     
   2.8125000000000004E-002     1.1864045004402977     
   2.8500000000000004E-002     1.2864319398362154     
   2.8875000000000005E-002     1.2925379956996819     
   2.9250000000000005E-002     1.2081922454573675     
   2.9625000000000005E-002     1.0487192338551758     
   3.0000000000000006E-002    0.83965907678804941     
   3.0375000000000006E-002    0.61357058685202182     
   3.0750000000000000E-002    0.40523631680355621     
   3.1125000000000000E-002    0.24640109175726577     
   3.1500000000000000E-002    0.16049789229631473     
   3.1875000000000001E-002    0.15813083404086808     
   3.2250000000000001E-002    0.23405178092109652     
   3.2625000000000001E-002    0.36681470189844462     
   3.3000000000000002E-002    0.52021727735200840     
   3.3375000000000002E-002    0.64793705761144382     
   3.3750000000000002E-002    0.70020674345357703     
   3.4125000000000003E-002    0.63130917115613316     
   3.4500000000000003E-002    0.40795134783775588     
   3.4875000000000003E-002     1.6431747473424685E-002
   3.5250000000000004E-002   -0.53300451491031553     
   3.5625000000000004E-002    -1.2044070845247348     
   3.6000000000000004E-002    -1.9388179621467712     
   3.6375000000000005E-002    -2.6603949718706570     
   3.6750000000000005E-002    -3.2858056481085978     
   3.7125000000000005E-002    -3.7351773948168292     
   3.7500000000000006E-002    -3.9429121294935694     
   3.7875000000000006E-002    -3.8676457998049578     
   3.8250000000000006E-002    -3.4976052632746866     
   3.8625000000000007E-002    -2.8529973339767842     
   3.9000000000000000E-002    -1.9836075586693069     
   3.9375000000000000E-002   -0.96188649136345372     
   3.9750000000000001E-002    0.12580126390096402     
   4.0125000000000001E-002     1.1901330854648331     
   4.0500000000000001E-002     2.1489113945913356     
   4.0875000000000002E-002     2.9357413393632328     
   4.1250000000000002E-002     3.5052227708256449     
   4.1625000000000002E-002     3.8360368992209022     
   4.2000000000000003E-002     3.9298538123604541     
   4.2375000000000003E-002     3.8077157222068490     
   4.2750000000000003E-002     3.5053239195488004     
   4.3125000000000004E-002     3.0667428944973638     
   4.3500000000000004E-002     2.5390810793479952     
   4.3875000000000004E-002     1.9670459520902237     
   4.4250000000000005E-002     1.3896146016599729     
   4.4625000000000005E-002    0.83803542670413589     
   4.5000000000000005E-002    0.33444521800596294     
   4.5375000000000006E-002   -0.10692831967811417     
   4.5750000000000006E-002   -0.47932586680198530     
   4.6125000000000006E-002   -0.78212985269986934     
   4.6500000000000007E-002    -1.0180565158686146     
   4.6875000000000007E-002    -1.1925989774441732     
   4.7250000000000000E-002    -1.3128935494337566     
   4.7625000000000001E-002    -1.3858456342071599     
   4.8000000000000001E-002    -1.4184372220243491     
   4.8375000000000001E-002    -1.4169944684043929     
   4.8750000000000002E-002    -1.3867279038171292     
   4.9125000000000002E-002    -1.3329638818332559     
   4.9500000000000002E-002    -1.2597046811246777     
   4.9875000000000003E-002    -1.1706077503916075     
   5.0250000000000003E-002    -1.0690257067207001     
   5.0625000000000003E-002   -0.95776839295234373     
   5.1000000000000004E-002   -0.83974262666978539     
   5.1375000000000004E-002   -0.71722064826735432     
   5.1750000000000004E-002   -0.59247185367018218     
   5.2125000000000005E-002   -0.46764380952119411     
   5.2500000000000005E-002   -0.34489005864006012     
   5.2875000000000005E-002   -0.22602333612730274     
   5.3250000000000006E-002   -0.11273625608790366     
   5.3625000000000006E-002    -6.5666489023913643E-003
   5.4000000000000006E-002     9.1034324471786388E-002
   5.4375000000000007E-002    0.17879733882790799     
   5.4750000000000007E-002    0.25607223151616854     
   5.5125000000000007E-002    0.32202955753180579     
   5.5500000000000008E-002    0.37650611811246593     
   5.5875000000000008E-002    0.41895482098647319     
   5.6250000000000008E-002    0.45007711101605952     
   5.6625000000000009E-002    0.47015694414718134     
   5.7000000000000009E-002    0.47986246449093262     
   5.7375000000000009E-002    0.48049385075284390     
   5.7750000000000010E-002    0.47271216385547210     
   5.8125000000000010E-002    0.45839109954282486     
   5.8500000000000010E-002    0.43852276122414269     
   5.8875000000000011E-002    0.41448800338582964     
   5.9250000000000011E-002    0.38747327795209113     
   5.9624999999999997E-002    0.35857529886043205     
   5.9999999999999998E-002    0.32892429220647529     
   6.0374999999999998E-002    0.29888260768749636     
   6.0749999999999998E-002    0.26911907994907819     
   6.1124999999999999E-002    0.24003503987642094     
   6.1499999999999999E-002    0.21146851421161367     
   6.1874999999999999E-002    0.18369793024391115     
   6.2250000000000000E-002    0.15620331447935987     
   6.2625000000000000E-002    0.12891034898724299     
   6.3000000000000000E-002    0.10175262211940304     
   6.3375000000000001E-002     7.4465663299328202E-002
   6.3750000000000001E-002     4.6999493269918875E-002
   6.4125000000000001E-002     1.9395806250851480E-002
   6.4500000000000002E-002    -7.9340975935706260E-003
   6.4875000000000002E-002    -3.4953425556346458E-002
   6.5250000000000002E-002    -6.1300154833564255E-002
   6.5625000000000003E-002    -8.6519070008226437E-002
   6.6000000000000003E-002   -0.11027582006117460     
   6.6375000000000003E-002   -0.13224563998631342     
   6.6750000000000004E-002   -0.15196722699189566     
   6.7125000000000004E-002   -0.16935036916743426     
   6.7500000000000004E-002   -0.18407810776849631     
   6.7875000000000005E-002   -0.19592725270379768     
   6.8250000000000005E-002   -0.20498131106512391     
   6.8625000000000005E-002   -0.21117679146225055     
   6.9000000000000006E-002   -0.21470360884382489     
   6.9375000000000006E-002   -0.21538241409432363     
   6.9750000000000006E-002   -0.21352257730139579     
   7.0125000000000007E-002   -0.20930832097681665     
   7.0500000000000007E-002   -0.20251171952281105     
   7.0875000000000007E-002   -0.19351362403130112     
   7.1250000000000008E-002   -0.18220592739823410     
   7.1625000000000008E-002   -0.16878544762688649     
   7.2000000000000008E-002   -0.15349781483194502     
   7.2375000000000009E-002   -0.13646277812307925     
   7.2750000000000009E-002   -0.11783819664806403     
   7.3125000000000009E-002    -9.8144146054772716E-002
   7.3500000000000010E-002    -7.7699151526403359E-002
   7.3875000000000010E-002    -5.6795085321038372E-002
   7.4250000000000010E-002    -3.5881283419611873E-002
   7.4625000000000011E-002    -1.5529652601739368E-002
   7.5000000000000011E-002     3.9749884126989345E-003
   7.5375000000000011E-002     2.2164544369109335E-002
   7.5750000000000012E-002     3.8686066908682655E-002
   7.6124999999999998E-002     5.3468677830868346E-002
   7.6499999999999999E-002     6.6217619365895652E-002
   7.6874999999999999E-002     7.6823532115169374E-002
   7.7249999999999999E-002     8.5772622906811882E-002
   7.7625000000000000E-002     9.2727839545897417E-002
   7.8000000000000000E-002     9.8262367916467613E-002
   7.8375000000000000E-002    0.10238490686340199     
   7.8750000000000001E-002    0.10527322156465070     
   7.9125000000000001E-002    0.10744415096520654     
   7.9500000000000001E-002    0.10866067073345292     
   7.9875000000000002E-002    0.10917273499797595     
   8.0250000000000002E-002    0.10913310574916497     
   8.0625000000000002E-002    0.10826839379426158     
   8.1000000000000003E-002    0.10693397115228834     
   8.1375000000000003E-002    0.10459357500987655     
   8.1750000000000003E-002    0.10131403635646694     
   8.2125000000000004E-002     9.7105172115338673E-002
   8.2500000000000004E-002     9.1808302584425266E-002
   8.2875000000000004E-002     8.5393465804036950E-002
   8.3250000000000005E-002     7.7837001545671552E-002
   8.3625000000000005E-002     6.9515965619846215E-002
   8.4000000000000005E-002     6.0488080123086568E-002
   8.4375000000000006E-002     5.0856567693411944E-002
   8.4750000000000006E-002     4.1064243106607640E-002
   8.5125000000000006E-002     3.1052602847120941E-002
   8.5500000000000007E-002     2.1258486749507418E-002
   8.5875000000000007E-002     1.1775917332995113E-002
   8.6250000000000007E-002     2.5221897098710328E-003
   8.6625000000000008E-002    -6.3216903733272316E-003
   8.7000000000000008E-002    -1.4712014579766645E-002
   8.7375000000000008E-002    -2.2669058828018323E-002
   8.7750000000000009E-002    -3.0375913267805123E-002
   8.8125000000000009E-002    -3.7811003464910675E-002
   8.8500000000000009E-002    -4.4867522379360647E-002
   8.8875000000000010E-002    -5.1700304194104194E-002
   8.9250000000000010E-002    -5.8070620360374914E-002
   8.9625000000000010E-002    -6.3895823264186719E-002
   9.0000000000000011E-002    -6.9192002252439752E-002
   9.0375000000000011E-002    -7.3361009152328516E-002
   9.0750000000000011E-002    -7.6374812978457135E-002
   9.1125000000000012E-002    -7.8322240799723289E-002
   9.1500000000000012E-002    -7.8770184979671545E-002
   9.1875000000000012E-002    -7.7727026732250099E-002
   9.2250000000000013E-002    -7.5409586890722538E-002
   9.2624999999999999E-002    -7.1763194598989721E-002
   9.2999999999999999E-002    -6.7182074206352332E-002
   9.3375000000000000E-002    -6.1711783073846629E-002
   9.3750000000000000E-002    -5.5625775737456987E-002
   9.4125000000000000E-002    -4.9202349999242820E-002
   9.4500000000000001E-002    -4.2791970113166586E-002
   9.4875000000000001E-002    -3.6538875412483608E-002
   9.5250000000000001E-002    -3.0327859875301462E-002
   9.5625000000000002E-002    -2.4609915719739826E-002
   9.6000000000000002E-002    -1.9172105577245309E-002
   9.6375000000000002E-002    -1.4051503515923866E-002
   9.6750000000000003E-002    -9.1043842758905345E-003
   9.7125000000000003E-002    -4.0298898148785171E-003
   9.7500000000000003E-002     8.9571719787471615E-004
   9.7875000000000004E-002     5.9224382857200469E-003
   9.8250000000000004E-002     1.1248367315558845E-002
   9.8625000000000004E-002     1.6505835082414922E-002
   9.9000000000000005E-002     2.1911118356868410E-002
   9.9375000000000005E-002     2.7088687237418016E-002
   9.9750000000000005E-002     3.1879853771264469E-002
  0.10012500000000001          3.6461070804319075E-002
  0.10050000000000001          4.0327560326737233E-002
  0.10087500000000001          4.3365561894524250E-002
  0.10125000000000001          4.5632597827068314E-002
  0.10162500000000001          4.6978627198893647E-002
  0.10200000000000001          4.7562051214266161E-002
  0.10237500000000001          4.7283589951712224E-002
  0.10275000000000001          4.6261743489050822E-002
  0.10312500000000001          4.4848610256013333E-002
  0.10350000000000001          4.3137225323582856E-002
  0.10387500000000001          4.1220684514955558E-002
  0.10425000000000001          3.9168901634860510E-002
  0.10462500000000001          3.7191197091983652E-002
  0.10500000000000001          3.5140551013779359E-002
  0.10537500000000001          3.3183700532838603E-002
  0.10575000000000001          3.0915580817155522E-002
  0.10612500000000001          2.8373325032436322E-002
  0.10650000000000001          2.5701477931084672E-002
  0.10687500000000001          2.2455138420912436E-002
  0.10725000000000001          1.8807027977147235E-002
  0.10762500000000001          1.4617867040927844E-002
  0.10800000000000001          9.9969043542315027E-003
  0.10837500000000001          5.1119908757959681E-003
  0.10875000000000001         -1.6351564152242669E-004
  0.10912500000000000         -5.4485278883917472E-003
  0.10950000000000000         -1.0615159379574003E-002
  0.10987500000000000         -1.5354178903574128E-002
  0.11025000000000000         -1.9532356080913204E-002
  0.11062500000000001         -2.3023413927134039E-002
  0.11100000000000000         -2.5744763758671928E-002
  0.11137500000000002         -2.7480612639000354E-002
  0.11175000000000000         -2.8539490310195058E-002
  0.11212500000000002         -2.9059014096439850E-002
  0.11250000000000000         -2.9142277427163979E-002
  0.11287500000000002         -2.9022454962510824E-002
  0.11325000000000000         -2.8803345992012550E-002
  0.11362500000000002         -2.8781994028068622E-002
  0.11400000000000000         -2.8850038025409350E-002
  0.11437500000000002         -2.8974223882759303E-002
  0.11475000000000000         -2.9050253923158881E-002
  0.11512500000000002         -2.9029074235984040E-002
  0.11550000000000001         -2.8668742720794754E-002
  0.11587500000000002         -2.7974794602410091E-002
  0.11625000000000001         -2.6702476519177513E-002
  0.11662500000000002         -2.5011272618193910E-002
  0.11700000000000001         -2.2913550431979596E-002
  0.11737499999999999         -2.0436753227906765E-002
  0.11775000000000001         -1.7592391013678182E-002
  0.11812499999999999         -1.4555557193906755E-002
  0.11850000000000001         -1.1365197234049919E-002
  0.11887499999999999         -8.0354682333712464E-003
  0.11925000000000001         -4.6441286488871939E-003
  0.11962500000000000         -1.1520227770595733E-003
  0.12000000000000001          2.0939390355898778E-003
  0.12037500000000000          5.0840585551047320E-003
  0.12075000000000001          7.8396205645601819E-003
  0.12112500000000000          1.0082579408250648E-002
  0.12150000000000001          1.1830058849401248E-002
  0.12187500000000000          1.3155636047768442E-002
  0.12225000000000001          1.4104160823194607E-002
  0.12262500000000000          1.4974913659286014E-002
  0.12300000000000001          1.5713518204085432E-002
  0.12337500000000000          1.6581270334691804E-002
  0.12375000000000001          1.7528111394904899E-002
  0.12412500000000000          1.8640146843684927E-002
  0.12450000000000001          1.9891776463466918E-002
  0.12487500000000000          2.0796506882891780E-002
  0.12525000000000003          2.1647504778143714E-002
  0.12562499999999999          2.2169038136977216E-002
  0.12600000000000000          2.2148801619761377E-002
  0.12637500000000002          2.1776983675158911E-002
  0.12675000000000003          2.0895026209092754E-002
  0.12712499999999999          1.9648749949648794E-002
  0.12750000000000000          1.8134900760073180E-002
  0.12787500000000002          1.6353535589353253E-002
  0.12825000000000003          1.4390151936524927E-002
  0.12862499999999999          1.2417914607327721E-002
  0.12900000000000000          1.0612794423528932E-002
  0.12937500000000002          8.8140515447977415E-003
  0.12975000000000003          7.1223142738652649E-003
  0.13012499999999999          5.7320641640875936E-003
  0.13050000000000000          4.2923982310092883E-003
  0.13087500000000002          3.0264667650844353E-003
  0.13125000000000003          1.5752476946078505E-003
  0.13162499999999999         -4.8867298961011347E-005
  0.13200000000000001         -1.6602996361500949E-003
  0.13237500000000002         -3.5721455124378089E-003
  0.13275000000000003         -5.6234513330762920E-003
  0.13312499999999999         -7.6371515858105771E-003
  0.13350000000000001         -9.7073732149608287E-003
  0.13387500000000002         -1.1489920622005465E-002
  0.13424999999999998         -1.3115781480280683E-002
  0.13462499999999999         -1.4529490730563175E-002
  0.13500000000000001         -1.5470506740371974E-002
  0.13537500000000002         -1.6026575271889207E-002
  0.13574999999999998         -1.6192048102296314E-002
  0.13612500000000000         -1.6032918887613740E-002
  0.13650000000000001         -1.5502634754384299E-002
  0.13687500000000002         -1.4670050620527411E-002
  0.13724999999999998         -1.3746553831398865E-002
  0.13762500000000000         -1.2717635757039047E-002
  0.13800000000000001         -1.1876391051352547E-002
  0.13837500000000003         -1.1030795889258363E-002
  0.13874999999999998         -1.0265692770799358E-002
  0.13912500000000000         -9.8249707149696899E-003
  0.13950000000000001         -9.3535767698952905E-003
  0.13987500000000003         -8.8148568141841743E-003
  0.14024999999999999         -8.3976285939045339E-003
  0.14062500000000000         -7.6214151095939306E-003
  0.14100000000000001         -6.8192664420090969E-003
  0.14137500000000003         -5.8739496182629988E-003
  0.14174999999999999         -4.4628713983573768E-003
  0.14212500000000000         -2.9987789998170400E-003
  0.14250000000000002         -1.3691205623827057E-003
  0.14287500000000003          3.5526027466880618E-004
  0.14324999999999999          2.2696831786389485E-003
  0.14362500000000000          4.0266326692293321E-003
  0.14400000000000002          5.5650119044015648E-003
  0.14437500000000003          6.9758290646749401E-003
  0.14474999999999999          7.9573742814764946E-003
  0.14512500000000000          8.6500863546915326E-003
  0.14550000000000002          9.1614816763089142E-003
  0.14587500000000003          9.1393690067222561E-003
  0.14624999999999999          9.1444942660706720E-003
  0.14662500000000001          9.0807752805723892E-003
  0.14700000000000002          8.9775854494691387E-003
  0.14737500000000003          8.9021865925979510E-003
  0.14774999999999999          8.9045074105457075E-003
  0.14812500000000001          9.0626946480914898E-003
  0.14850000000000002          9.2818541843921135E-003
  0.14887500000000004          9.4647207787618478E-003
  0.14924999999999999          9.6523563627617884E-003
  0.14962500000000001          9.7808573097166313E-003
  0.15000000000000002          9.7581794436270037E-003
  0.15037499999999998          9.5524120923915230E-003
  0.15075000000000000          8.9418434355982256E-003
  0.15112500000000001          8.1997673340613256E-003
  0.15150000000000002          7.0903966021886155E-003
  0.15187499999999998          5.7710146413705804E-003
  0.15225000000000000          4.2811859513905894E-003
  0.15262500000000001          2.6604516504839847E-003
  0.15300000000000002          1.2028654237618329E-003
  0.15337499999999998         -1.3838495874222187E-004
  0.15375000000000000         -1.3774810452972155E-003
  0.15412500000000001         -2.3199947070317380E-003
  0.15450000000000003         -2.9881690121193079E-003
  0.15487499999999998         -3.4625611174967695E-003
  0.15525000000000000         -3.7163165937060798E-003
  0.15562500000000001         -3.9370535089465206E-003
  0.15600000000000003         -3.9648339321266129E-003
  0.15637499999999999         -4.0241089075665976E-003
  0.15675000000000000         -4.1384727020811213E-003
  0.15712500000000001         -4.4400940602151414E-003
  0.15750000000000003         -4.8516606884674383E-003
  0.15787499999999999         -5.4457051742532007E-003
  0.15825000000000000         -6.1280636843768221E-003
  0.15862500000000002         -6.9548528412474320E-003
  0.15900000000000003         -7.7583306887860151E-003
  0.15937499999999999         -8.3712833579182647E-003
  0.15975000000000000         -8.7842651672843369E-003
  0.16012500000000002         -8.9813966432952964E-003
  0.16050000000000003         -8.7677259180143959E-003
  0.16087499999999999         -8.3153916094807403E-003
  0.16125000000000000         -7.4743412783049596E-003
  0.16162500000000002         -6.5252930657186455E-003
  0.16200000000000003         -5.3855427840302453E-003
  0.16237499999999999         -4.1715473628996099E-003
  0.16275000000000001         -3.0824654824180304E-003
  0.16312500000000002         -2.0047007800457466E-003
  0.16350000000000003         -1.2025709929928941E-003
  0.16387499999999999         -6.4398740231587359E-004
  0.16425000000000001         -2.2012199889608866E-004
  0.16462500000000002         -1.0010487004147349E-004
  0.16500000000000004         -1.1552424319814764E-004
  0.16537499999999999         -2.0538761971365611E-004
  0.16575000000000001         -1.5439255197718645E-004
  0.16612500000000002         -4.9777931001644899E-005
  0.16650000000000004          2.4504682491584707E-004
  0.16687500000000000          7.9352597395555770E-004
  0.16725000000000001          1.6033640685641840E-003
  0.16762500000000002          2.4360717559617109E-003
  0.16799999999999998          3.5193185655092449E-003
  0.16837500000000000          4.4135978705998734E-003
  0.16875000000000001          5.2915668808399159E-003
  0.16912500000000003          6.0629529040043990E-003
  0.16949999999999998          6.4867078745959299E-003
  0.16987500000000000          6.6908411723730302E-003
  0.17025000000000001          6.5748830914811856E-003
  0.17062500000000003          6.2545808975134325E-003
  0.17099999999999999          5.7517136602799742E-003
  0.17137500000000000          4.9402952884768474E-003
  0.17175000000000001          4.2390472036599883E-003
  0.17212500000000003          3.5600917484478918E-003
  0.17249999999999999          2.9916304997329619E-003
  0.17287500000000000          2.6448217257408050E-003
  0.17325000000000002          2.4730527867705921E-003
  0.17362500000000003          2.4765702132635735E-003
  0.17399999999999999          2.7756282846112365E-003
  0.17437500000000000          2.8562699732359968E-003
  0.17475000000000002          3.0608698118006804E-003
  0.17512500000000003          3.1257730833279401E-003
  0.17549999999999999          3.0400283208661533E-003
  0.17587500000000000          2.7130768571749474E-003
  0.17625000000000002          2.0998839157091668E-003
  0.17662500000000003          1.3877801286372830E-003
  0.17699999999999999          4.9580775382317447E-004
  0.17737500000000000         -5.3656348401379345E-004
  0.17775000000000002         -1.5159201164391121E-003
  0.17812500000000003         -2.6272298185578522E-003
  0.17849999999999999         -3.3351657703263060E-003
  0.17887500000000001         -3.8536534332127073E-003
  0.17925000000000002         -4.2546303781121377E-003
  0.17962500000000003         -4.2698472839426370E-003
  0.17999999999999999         -4.0175655183553229E-003
  0.18037500000000001         -3.6068237893704582E-003
  0.18075000000000002         -3.1321654409342250E-003
  0.18112500000000004         -2.6899476305053743E-003
  0.18149999999999999         -2.3198003162722613E-003
  0.18187500000000001         -2.0571744781072393E-003
  0.18225000000000002         -1.9499172340263337E-003
  0.18262500000000004         -2.1137945023830388E-003
  0.18300000000000000         -2.4355633538878990E-003
  0.18337500000000001         -2.7505278082898248E-003
  0.18375000000000002         -3.1589008796053752E-003
  0.18412499999999998         -3.6775343419023880E-003
  0.18450000000000000         -4.0220088044616593E-003
  0.18487500000000001         -4.1685660712078038E-003
  0.18525000000000003         -4.1197983327753663E-003
  0.18562499999999998         -3.8011692004825993E-003
  0.18600000000000000         -3.2924573514096014E-003
  0.18637500000000001         -2.5346977500491407E-003
  0.18675000000000003         -1.4967126816720466E-003
  0.18712499999999999         -5.5064337438019760E-004
  0.18750000000000000          3.4401340166306810E-004
  0.18787500000000001          1.1294700129760586E-003
  0.18825000000000003          1.8249172535275502E-003
  0.18862499999999999          2.1756697394951412E-003
  0.18900000000000000          2.2868976408136552E-003