  -1.4999999999999999E-002     0.0000000000000000     
  -1.4624999999999999E-002     0.0000000000000000     
  -1.4249999999999999E-002     0.0000000000000000     
  -1.3874999999999998E-002     0.0000000000000000     
  -1.3500000000000000E-002     0.0000000000000000     
  -1.3125000000000000E-002     0.0000000000000000     
  -1.2749999999999999E-002     0.0000000000000000     
  -1.2374999999999999E-002     0.0000000000000000     
  -1.2000000000000000E-002     0.0000000000000000     
  -1.1625000000000000E-002     0.0000000000000000     
  -1.1250000000000000E-002     0.0000000000000000     
  -1.0874999999999999E-002     0.0000000000000000     
  -1.0499999999999999E-002     0.0000000000000000     
  -1.0124999999999999E-002     0.0000000000000000     
  -9.7499999999999983E-003     0.0000000000000000     
  -9.3749999999999979E-003     0.0000000000000000     
  -8.9999999999999993E-003     0.0000000000000000     
  -8.6249999999999990E-003     0.0000000000000000     
  -8.2500000000000004E-003     0.0000000000000000     
  -7.8750000000000001E-003     0.0000000000000000     
  -7.4999999999999989E-003     0.0000000000000000     
  -7.1249999999999994E-003     0.0000000000000000     
  -6.7499999999999991E-003     0.0000000000000000     
  -6.3749999999999987E-003     0.0000000000000000     
  -5.9999999999999984E-003     0.0000000000000000     
  -5.6249999999999998E-003     0.0000000000000000     
  -5.2499999999999995E-003     0.0000000000000000     
  -4.8749999999999991E-003     0.0000000000000000     
  -4.4999999999999988E-003     0.0000000000000000     
  -4.1249999999999985E-003     0.0000000000000000     
  -3.7499999999999981E-003     0.0000000000000000     
  -3.3749999999999995E-003     0.0000000000000000     
  -2.9999999999999992E-003     0.0000000000000000     
  -2.6249999999999989E-003     0.0000000000000000     
  -2.2499999999999985E-003     0.0000000000000000     
  -1.8749999999999982E-003     0.0000000000000000     
  -1.4999999999999996E-003     0.0000000000000000     
  -1.1249999999999993E-003     0.0000000000000000     
  -7.4999999999999893E-004     0.0000000000000000     
  -3.7499999999999860E-004     0.0000000000000000     
   1.7347234759768071E-018     0.0000000000000000     
   3.7500000000000207E-004     0.0000000000000000     
   7.5000000000000067E-004     0.0000000000000000     
   1.1250000000000010E-003     0.0000000000000000     
   1.5000000000000013E-003     0.0000000000000000     
   1.8750000000000017E-003     0.0000000000000000     
   2.2500000000000020E-003     0.0000000000000000     
   2.6250000000000023E-003     0.0000000000000000     
   3.0000000000000027E-003     0.0000000000000000     
   3.3750000000000030E-003     0.0000000000000000     
   3.7499999999999999E-003     0.0000000000000000     
   4.1250000000000002E-003     0.0000000000000000     
   4.5000000000000005E-003     0.0000000000000000     
   4.8750000000000009E-003     0.0000000000000000     
   5.2500000000000012E-003     0.0000000000000000     
   5.6250000000000015E-003     0.0000000000000000     
   6.0000000000000019E-003     0.0000000000000000     
   6.3750000000000022E-003     0.0000000000000000     
   6.7500000000000025E-003     0.0000000000000000     
   7.1250000000000029E-003     0.0000000000000000     
   7.5000000000000032E-003     0.0000000000000000     
   7.8750000000000001E-003     0.0000000000000000     
   8.2500000000000004E-003     0.0000000000000000     
   8.6250000000000007E-003     0.0000000000000000     
   9.0000000000000011E-003     0.0000000000000000     
   9.3750000000000014E-003     0.0000000000000000     
   9.7500000000000017E-003     0.0000000000000000     
   1.0125000000000002E-002     0.0000000000000000     
   1.0500000000000002E-002     0.0000000000000000     
   1.0875000000000003E-002     0.0000000000000000     
   1.1250000000000003E-002     0.0000000000000000     
   1.1625000000000003E-002     0.0000000000000000     
   1.2000000000000000E-002     0.0000000000000000     
   1.2375000000000001E-002     0.0000000000000000     
   1.2750000000000001E-002     0.0000000000000000     
   1.3125000000000001E-002     0.0000000000000000     
   1.3500000000000002E-002     0.0000000000000000     
   1.3875000000000002E-002     0.0000000000000000     
   1.4250000000000002E-002    -5.1414528167407332E-053
   1.4625000000000003E-002    -7.6718936496725075E-050
   1.5000000000000003E-002    -5.1983910631268441E-037
   1.5375000000000003E-002     6.6646400140051765E-035
   1.5750000000000004E-002     5.3523386283751417E-034
   1.6125000000000000E-002     1.8264767356603337E-033
   1.6500000000000001E-002    -8.4842436533808389E-032
   1.6875000000000001E-002    -2.9528593252999436E-031
   1.7250000000000001E-002     3.3748700434275518E-030
   1.7625000000000002E-002     3.2711438116021306E-030
   1.8000000000000002E-002    -1.0869944685078929E-028
   1.8375000000000002E-002     4.5743269176356165E-028
   1.8750000000000003E-002    -4.3871459712331815E-028
   1.9125000000000003E-002    -4.8457295637726070E-027
   1.9500000000000003E-002     3.3046671051477982E-026
   1.9875000000000004E-002    -1.4360092905442863E-025
   2.0250000000000004E-002     7.2724739859500837E-025
   2.0625000000000004E-002     3.7906307083168325E-024
   2.1000000000000005E-002     1.3722359952548684E-023
   2.1375000000000005E-002     5.2364988689842323E-023
   2.1750000000000005E-002     1.9805164485919513E-022
   2.2125000000000006E-002     7.3568336146914516E-022
   2.2499999999999999E-002     2.6836767368318338E-021
   2.2875000000000000E-002     9.6103846805545248E-021
   2.3250000000000000E-002     3.3792915253936008E-020
   2.3625000000000000E-002     1.1666521937212357E-019
   2.4000000000000000E-002     3.9544996640410798E-019
   2.4375000000000001E-002     1.3160297502592443E-018
   2.4750000000000001E-002     4.2998956610806533E-018
   2.5125000000000001E-002     1.3792962643279377E-017
   2.5500000000000002E-002     4.3437049854234810E-017
   2.5875000000000002E-002     1.3429344511456073E-016
   2.6250000000000002E-002     4.0759767623879318E-016
   2.6625000000000003E-002     1.2144539375811911E-015
   2.7000000000000003E-002     3.5521729995343131E-015
   2.7375000000000003E-002     1.0199050230714756E-014
   2.7750000000000004E-002     2.8745221459031143E-014
   2.8125000000000004E-002     7.9524334713518265E-014
   2.8500000000000004E-002     2.1594766706553470E-013
   2.8875000000000005E-002     5.7557636125674742E-013
   2.9250000000000005E-002     1.5057025970924006E-012
   2.9625000000000005E-002     3.8659065621232738E-012
   3.0000000000000006E-002     9.7413260871886410E-012
   3.0375000000000006E-002     2.4089316623663725E-011
   3.0750000000000000E-002     5.8458612543043230E-011
   3.1125000000000000E-002     1.3921209316281752E-010
   3.1500000000000000E-002     3.2529838862656577E-010
   3.1875000000000001E-002     7.4583578477881555E-010
   3.2250000000000001E-002     1.6778047731287390E-009
   3.2625000000000001E-002     3.7029056024909529E-009
   3.3000000000000002E-002     8.0172685275935238E-009
   3.3375000000000002E-002     1.7027766081694303E-008
   3.3750000000000002E-002     3.5473813226820673E-008
   3.4125000000000003E-002     7.2484109062798203E-008
   3.4500000000000003E-002     1.4525204750122491E-007
   3.4875000000000003E-002     2.8543380786721184E-007
   3.5250000000000004E-002     5.4998593852712454E-007
   3.5625000000000004E-002     1.0389920462015209E-006
   3.6000000000000004E-002     1.9240975412314105E-006
   3.6375000000000005E-002     3.4926413662450845E-006
   3.6750000000000005E-002     6.2131846318344646E-006
   3.7125000000000005E-002     1.0830453173940632E-005
   3.7500000000000006E-002     1.8495918292022197E-005
   3.7875000000000006E-002     3.0939005540375053E-005
   3.8250000000000006E-002     5.0682369089522014E-005
   3.8625000000000007E-002     8.1284827832705668E-005
   3.9000000000000000E-002     1.2760135893412328E-004
   3.9375000000000000E-002     1.9599654282688523E-004
   3.9750000000000001E-002     2.9447323553683207E-004
   4.0125000000000001E-002     4.3257952317755818E-004
   4.0500000000000001E-002     6.2103541783701383E-004
   4.0875000000000002E-002     8.7087807155434172E-004
   4.1250000000000002E-002     1.1921252420417628E-003
   4.1625000000000002E-002     1.5918135175540808E-003
   4.2000000000000003E-002     2.0715099667665627E-003
   4.2375000000000003E-002     2.6245420453387563E-003
   4.2750000000000003E-002     3.2332664565142936E-003
   4.3125000000000004E-002     3.8666826474526355E-003
   4.3500000000000004E-002     4.4803039840177680E-003
   4.3875000000000004E-002     5.0163709038886228E-003
   4.4250000000000005E-002     5.4085136147424221E-003
   4.4625000000000005E-002     5.5889537886503774E-003
   4.5000000000000005E-002     5.4962527173914597E-003
   4.5375000000000006E-002     5.0891046908806145E-003
   4.5750000000000006E-002     4.3553497855731609E-003
   4.6125000000000006E-002     3.3243865466642472E-003
   4.6500000000000007E-002     2.0665431812758803E-003
   4.6875000000000007E-002     6.9808315701257238E-004
   4.7250000000000000E-002    -6.3636506687498055E-004
   4.7625000000000001E-002    -1.7792353013098804E-003
   4.8000000000000001E-002    -2.5866009207755830E-003
   4.8375000000000001E-002    -2.9616901006476277E-003
   4.8750000000000002E-002    -2.8752172288020730E-003
   4.9125000000000002E-002    -2.3958919337152720E-003
   4.9500000000000002E-002    -1.6898533999468559E-003
   4.9875000000000003E-002    -1.0163555920469753E-003
   5.0250000000000003E-002    -7.0024213272587425E-004
   5.0625000000000003E-002    -1.0832989383144902E-003
   5.1000000000000004E-002    -2.4801134042322956E-003
   5.1375000000000004E-002    -5.1110522913375839E-003
   5.1750000000000004E-002    -9.0613275992060954E-003
   5.2125000000000005E-002    -1.4238887792552299E-002
   5.2500000000000005E-002    -2.0373625393358727E-002
   5.2875000000000005E-002    -2.7026794048278457E-002
   5.3250000000000006E-002    -3.3638499359847210E-002
   5.3625000000000006E-002    -3.9581073167917494E-002
   5.4000000000000006E-002    -4.4244992617508631E-002
   5.4375000000000007E-002    -4.7099517855048033E-002
   5.4750000000000007E-002    -4.7763732458706756E-002
   5.5125000000000007E-002    -4.6042385562931415E-002
   5.5500000000000008E-002    -4.1945275366115885E-002
   5.5875000000000008E-002    -3.5679551401254686E-002
   5.6250000000000008E-002    -2.7613835820560574E-002
   5.6625000000000009E-002    -1.8230227298161844E-002
   5.7000000000000009E-002    -8.0635444934172122E-003
   5.7375000000000009E-002     2.3445602500759520E-003
   5.7750000000000010E-002     1.2508270963795753E-002
   5.8125000000000010E-002     2.2015314486087161E-002
   5.8500000000000010E-002     3.0550263484067423E-002
   5.8875000000000011E-002     3.7903853817262530E-002
   5.9250000000000011E-002     4.3941090954003580E-002
   5.9624999999999997E-002     4.8589578164298056E-002
   5.9999999999999998E-002     5.1838036432528170E-002
   6.0374999999999998E-002     5.3688725717499552E-002
   6.0749999999999998E-002     5.4168291148186005E-002
   6.1124999999999999E-002     5.3337815442453952E-002
   6.1499999999999999E-002     5.1285267525021286E-002
   6.1874999999999999E-002     4.8166811775695581E-002
   6.2250000000000000E-002     4.4200202568477426E-002
   6.2625000000000000E-002     3.9719060280879709E-002
   6.3000000000000000E-002     3.5120688299723708E-002
   6.3375000000000001E-002     3.0879696565750712E-002
   6.3750000000000001E-002     2.7497075890651236E-002
   6.4125000000000001E-002     2.5426119949755931E-002
   6.4500000000000002E-002     2.4997678172198796E-002
   6.4875000000000002E-002     2.6343444811173219E-002
   6.5250000000000002E-002     2.9337566503597919E-002
   6.5625000000000003E-002     3.3518891832697122E-002
   6.6000000000000003E-002     3.8167488083352491E-002
   6.6375000000000003E-002     4.2274637619866051E-002
   6.6750000000000004E-002     4.4719739314022025E-002
   6.7125000000000004E-002     4.4377096864081464E-002
   6.7500000000000004E-002     4.0288796260025850E-002
   6.7875000000000005E-002     3.1848057441539152E-002
   6.8250000000000005E-002     1.8900564229006288E-002
   6.8625000000000005E-002     1.8689204629215453E-003
   6.9000000000000006E-002    -1.8291373481439811E-002
   6.9375000000000006E-002    -4.0128608614942690E-002
   6.9750000000000006E-002    -6.1855650339476945E-002
   7.0125000000000007E-002    -8.1570458424154585E-002
   7.0500000000000007E-002    -9.7439946721039616E-002
   7.0875000000000007E-002   -0.10797456866609997     
   7.1250000000000008E-002   -0.11217468702126790     
   7.1625000000000008E-002   -0.10964570344349252     
   7.2000000000000008E-002   -0.10064099561293921     
   7.2375000000000009E-002    -8.6014709880276458E-002
   7.2750000000000009E-002    -6.7066806666821299E-002
   7.3125000000000009E-002    -4.5423565379724661E-002
   7.3500000000000010E-002    -2.2792338022332922E-002
   7.3875000000000010E-002    -8.0436765493920221E-004
   7.4250000000000010E-002     1.9122562127926200E-002
   7.4625000000000011E-002     3.5920394759279800E-002
   7.5000000000000011E-002     4.8874181209335982E-002
   7.5375000000000011E-002     5.7630925265888797E-002
   7.5750000000000012E-002     6.2150180689733776E-002
   7.6124999999999998E-002     6.2597731152566491E-002
   7.6499999999999999E-002     5.9322740973143967E-002
   7.6874999999999999E-002     5.2735729533406044E-002
   7.7249999999999999E-002     4.3281674418528038E-002
   7.7625000000000000E-002     3.1450598206134647E-002
   7.8000000000000000E-002     1.7710068425759361E-002
   7.8375000000000000E-002     2.5612894651065071E-003
   7.8750000000000001E-002    -1.3429845844971682E-002
   7.9125000000000001E-002    -2.9728199344068618E-002
   7.9500000000000001E-002    -4.5723969055853311E-002
   7.9875000000000002E-002    -6.0829343555895136E-002
   8.0250000000000002E-002    -7.4510390006843841E-002
   8.0625000000000002E-002    -8.6284442635522346E-002
   8.1000000000000003E-002    -9.5786662259888466E-002
   8.1375000000000003E-002   -0.10275106494992856     
   8.1750000000000003E-002   -0.10701450471767672     
   8.2125000000000004E-002   -0.10850249330293692     
   8.2500000000000004E-002   -0.10716543666109771     
   8.2875000000000004E-002   -0.10297605470321679     
   8.3250000000000005E-002    -9.5879019948644964E-002
   8.3625000000000005E-002    -8.5791728933091449E-002
   8.4000000000000005E-002    -7.2610600365980049E-002
   8.4375000000000006E-002    -5.6227782853653464E-002
   8.4750000000000006E-002    -3.6621783099810665E-002
   8.5125000000000006E-002    -1.3838688533398738E-002
   8.5500000000000007E-002     1.1878039295896828E-002
   8.5875000000000007E-002     4.0082736449037974E-002
   8.6250000000000007E-002     7.0108208660204729E-002
   8.6625000000000008E-002    0.10099619101734797     
   8.7000000000000008E-002    0.13156329881707515     
   8.7375000000000008E-002    0.16040598927387081     
   8.7750000000000009E-002    0.18595987796786451     
   8.8125000000000009E-002    0.20658819231877454     
   8.8500000000000009E-002    0.22066102123329936     
   8.8875000000000010E-002    0.22671800045817450     
   8.9250000000000010E-002    0.22356287901760089     
   8.9625000000000010E-002    0.21041164696321837     
   9.0000000000000011E-002    0.18704961080520197     
   9.0375000000000011E-002    0.15387130049774797     
   9.0750000000000011E-002    0.11200060819996473     
   9.1125000000000012E-002     6.3258760397988917E-002
   9.1500000000000012E-002     1.0097791796490563E-002
   9.1875000000000012E-002    -4.4492810406300931E-002
   9.2250000000000013E-002    -9.7215805589399157E-002
   9.2624999999999999E-002   -0.14469282721373497     
   9.2999999999999999E-002   -0.18372057195005273     
   9.3375000000000000E-002   -0.21156466152570264     
   9.3750000000000000E-002   -0.22622217507668604     
   9.4125000000000000E-002   -0.22659847002074143     
   9.4500000000000001E-002   -0.21262047652017024     
   9.4875000000000001E-002   -0.18537839583101795     
   9.5250000000000001E-002   -0.14691312224788239     
   9.5625000000000002E-002   -0.10018976468892926     
   9.6000000000000002E-002    -4.8789829132914471E-002
   9.6375000000000002E-002     3.4080488366094574E-003
   9.6750000000000003E-002     5.2507685052452853E-002
   9.7125000000000003E-002     9.4999603375293382E-002
   9.7500000000000003E-002    0.12805290565413865     
   9.7875000000000004E-002    0.14969952170383646     
   9.8250000000000004E-002    0.15902280909644309     
   9.8625000000000004E-002    0.15617912945608703     
   9.9000000000000005E-002    0.14228449595883652     
   9.9375000000000005E-002    0.11929718371473538     
   9.9750000000000005E-002     8.9744315265345834E-002
  0.10012500000000001          5.6426015667170468E-002
  0.10050000000000001          2.2243707629131665E-002
  0.10087500000000001         -1.0218314956607416E-002
  0.10125000000000001         -3.8710867718472639E-002
  0.10162500000000001         -6.1609745772719514E-002
  0.10200000000000001         -7.7911667704210055E-002
  0.10237500000000001         -8.7224632522111697E-002
  0.10275000000000001         -8.9830360084706740E-002
  0.10312500000000001         -8.6465425495337131E-002
  0.10350000000000001         -7.8321278437480615E-002
  0.10387500000000001         -6.6831898546547294E-002
  0.10425000000000001         -5.3545449215460443E-002
  0.10462500000000001         -3.9971135041091371E-002
  0.10500000000000001         -2.7400705492779138E-002
  0.10537500000000001         -1.6811409056663611E-002
  0.10575000000000001         -8.7345215193750762E-003
  0.10612500000000001         -3.2374918555925112E-003
  0.10650000000000001          1.7817114150776250E-005
  0.10687500000000001          1.7599345455065513E-003
  0.10725000000000001          2.8613267724564976E-003
  0.10762500000000001          4.1899395953246387E-003
  0.10800000000000001          6.4799024988563044E-003
  0.10837500000000001          1.0019045123431925E-002
  0.10875000000000001          1.4758498055243532E-002
  0.10912500000000000          2.0169361714531025E-002
  0.10950000000000000          2.5360358571321885E-002
  0.10987500000000000          2.9313082897467133E-002
  0.11025000000000000          3.1032525682127200E-002
  0.11062500000000001          2.9734534189591693E-002
  0.11100000000000000          2.5163132206253304E-002
  0.11137500000000002          1.7510658319007166E-002
  0.11175000000000000          7.5699246238618602E-003
  0.11212500000000002         -3.3892441550694690E-003
  0.11250000000000000         -1.3851805264232962E-002
  0.11287500000000002         -2.2209332967622279E-002
  0.11325000000000000         -2.7062552908833724E-002
  0.11362500000000002         -2.7443543274201027E-002
  0.11400000000000000         -2.3014804036816081E-002
  0.11437500000000002         -1.4113509959061056E-002
  0.11475000000000000         -1.8506334592891219E-003
  0.11512500000000002          1.2096272609105219E-002
  0.11550000000000001          2.5604081705512122E-002
  0.11587500000000002          3.6403858760136666E-002
  0.11625000000000001          4.2377971013031354E-002
  0.11662500000000002          4.1929077707234717E-002
  0.11700000000000001          3.4171041097835510E-002
  0.11737499999999999          1.9183539681189504E-002
  0.11775000000000001         -1.8716023322573755E-003
  0.11812499999999999         -2.6954054838286893E-002
  0.11850000000000001         -5.3150012702459573E-002
  0.11887499999999999         -7.7205592424304234E-002
  0.11925000000000001         -9.5753770864717924E-002
  0.11962500000000000        -0.10590542484701494     
  0.12000000000000001        -0.10555706336128853     
  0.12037500000000000         -9.3733899514284388E-002
  0.12075000000000001         -7.0798589070494480E-002
  0.12112500000000000         -3.8352924798245036E-002
  0.12150000000000001          7.9800592782625003E-004
  0.12187500000000000          4.3059142638377429E-002
  0.12225000000000001          8.4414444739521810E-002
  0.12262500000000000         0.12085560136503608     
  0.12300000000000001         0.14885028369773667     
  0.12337500000000000         0.16568441740310183     
  0.12375000000000001         0.16975386466692541     
  0.12412500000000000         0.16058734078836370     
  0.12450000000000001         0.13904508012171793     
  0.12487500000000000         0.10695431391308022     
  0.12525000000000003          6.7068626258550923E-002
  0.12562499999999999          2.2680628132893156E-002
  0.12600000000000000         -2.2625916224468773E-002
  0.12637500000000002         -6.5360410689646986E-002
  0.12675000000000003        -0.10238645250482968     
  0.12712499999999999        -0.13109498839303096     
  0.12750000000000000        -0.14971619915675366     
  0.12787500000000002        -0.15720421163677523     
  0.12825000000000003        -0.15351471635332878     
  0.12862499999999999        -0.13931580507033819     
  0.12900000000000000        -0.11603954962862510     
  0.12937500000000002         -8.5747207962219518E-002
  0.12975000000000003         -5.0872711479099185E-002
  0.13012499999999999         -1.4137063695214469E-002
  0.13050000000000000          2.1692029459658310E-002
  0.13087500000000002          5.3916437382581471E-002
  0.13125000000000003          8.0229184115459234E-002
  0.13162499999999999          9.8639606928915158E-002
  0.13200000000000001         0.10787549864579836     
  0.13237500000000002         0.10729758706974381     
  0.13275000000000003          9.7077142398430544E-002
  0.13312499999999999          7.8174848275915615E-002
  0.13350000000000001          5.2311939603448834E-002
  0.13387500000000002          2.1908341979720539E-002
  0.13424999999999998         -1.0188420445077362E-002
  0.13462499999999999         -4.0798724972410015E-002
  0.13500000000000001         -6.6797093242263683E-002
  0.13537500000000002         -8.5345898068355908E-002
  0.13574999999999998         -9.4195893276730100E-002
  0.13612500000000000         -9.1993127202157257E-002
  0.13650000000000001         -7.8345325272085098E-002
  0.13687500000000002         -5.4087077185386107E-002
  0.13724999999999998         -2.1091703764257536E-002
  0.13762500000000000          1.7804371308616930E-002
  0.13800000000000001          5.8971745945760025E-002
  0.13837500000000003          9.8506572151212612E-002
  0.13874999999999998         0.13250039523304552     
  0.13912500000000000         0.15750065896961846     
  0.13950000000000001         0.17085021830457511     
  0.13987500000000003         0.17102554544566628     
  0.14024999999999999         0.15774421993726281     
  0.14062500000000000         0.13199701703027933     
  0.14100000000000001          9.5886518570074242E-002
  0.14137500000000003          5.2353755998840026E-002
  0.14174999999999999          4.9006143014728000E-003
  0.14212500000000000         -4.2995536811327215E-002
  0.14250000000000002         -8.8007262675431019E-002
  0.14287500000000003        -0.12746115159808377     
  0.14324999999999999        -0.15947253886499357     
  0.14362500000000000        -0.18295327209819981     
  0.14400000000000002        -0.19776160556569172     
  0.14437500000000003        -0.20438825245105791     
  0.14474999999999999        -0.20398036368760111     
  0.14512500000000000        -0.19802178544200827     
  0.14550000000000002        -0.18817529734275057     
  0.14587500000000003        -0.17611203085785623     
  0.14624999999999999        -0.16328884272691765     
  0.14662500000000001        -0.15084168903902820     
  0.14700000000000002        -0.13930025497485221     
  0.14737500000000003        -0.12868169525744011     
  0.14774999999999999        -0.11817139693406079     
  0.14812500000000001        -0.10629611069863007     
  0.14850000000000002         -9.0930283045069338E-002
  0.14887500000000004         -6.9520254333934134E-002
  0.14924999999999999         -3.9396419852860069E-002
  0.14962500000000001          1.7844303915000030E-003
  0.15000000000000002          5.5653869786403534E-002
  0.15037499999999998         0.12267052646377069     
  0.15075000000000000         0.20173832165719502     
  0.15112500000000001         0.29006518743237808     
  0.15150000000000002         0.38311053319562222     
  0.15187499999999998         0.47488139757488185     
  0.15225000000000000         0.55832389876101152     
  0.15262500000000001         0.62592193084090453     
  0.15300000000000002         0.67058492721286644     
  0.15337499999999998         0.68618886268570556     
  0.15375000000000000         0.66858081977144412     
  0.15412500000000001         0.61572647049699969     
  0.15450000000000003         0.52841938598765026     
  0.15487499999999998         0.41002414119468023     
  0.15525000000000000         0.26625198249096821     
  0.15562500000000001         0.10479437606254323     
  0.15600000000000003         -6.5640531434435517E-002
  0.15637499999999999        -0.23588068325611472     
  0.15675000000000000        -0.39725309020535732     
  0.15712500000000001        -0.54225888799245592     
  0.15750000000000003        -0.66505829415741391     
  0.15787499999999999        -0.76167694522972651     
  0.15825000000000000        -0.83021467481699174     
  0.15862500000000002        -0.87049851946410839     
  0.15900000000000003        -0.88366438197597541     
  0.15937499999999999        -0.87194032547763867     
  0.15975000000000000        -0.83764136004493561     
  0.16012500000000002        -0.78328630154906476     
  0.16050000000000003        -0.71075785845381101     
  0.16087499999999999        -0.62141620698993905     
  0.16125000000000000        -0.51604720290370887     
  0.16162500000000002        -0.39510746773966604     
  0.16200000000000003        -0.25908557860031178     
  0.16237499999999999        -0.10897516334867291     
  0.16275000000000001          5.3109813523183225E-002
  0.16312500000000002         0.22376545391530811     
  0.16350000000000003         0.39782307713320458     
  0.16387499999999999         0.56836313306070341     
  0.16425000000000001         0.72712202181089003     
  0.16462500000000002         0.86467174562630778     
  0.16500000000000004         0.97150565730578875     
  0.16537499999999999          1.0385621371746756     
  0.16575000000000001          1.0582718406198905     
  0.16612500000000002          1.0255034822885380     
  0.16650000000000004         0.93817721069492066     
  0.16687500000000000         0.79774864692563052     
  0.16725000000000001         0.60971662961559125     
  0.16762500000000002         0.38338519539760213     
  0.16799999999999998         0.13169532301757150     
  0.16837500000000000        -0.12948091804671233     
  0.16875000000000001        -0.38219629793219823     
  0.16912500000000003        -0.60771398084088257     
  0.16949999999999998        -0.78801780206642336     
  0.16987500000000000        -0.90713453955392953     
  0.17025000000000001        -0.95329785860309346     
  0.17062500000000003        -0.91999655271721104     
  0.17099999999999999        -0.80732847329965285     
  0.17137500000000000        -0.62283862832277948     
  0.17175000000000001        -0.38115402717638452     
  0.17212500000000003        -0.10308596364377402     
  0.17249999999999999         0.18577347832236601     
  0.17287500000000000         0.45783739786590927     
  0.17325000000000002         0.68638189178828679     
  0.17362500000000003         0.84814054711572251     
  0.17399999999999999         0.92661503435084980     
  0.17437500000000000         0.91364082309347561     
  0.17475000000000002         0.81057933107647040     
  0.17512500000000003         0.62821084791718296     
  0.17549999999999999         0.38558857158079612     
  0.17587500000000000         0.10757702911872200     
  0.17625000000000002        -0.17789196920562927     
  0.17662500000000003        -0.44299840901528059     
  0.17699999999999999        -0.66319397094047206     
  0.17737500000000000        -0.81971951548344058     
  0.17775000000000002        -0.90115937822921366     
  0.17812500000000003        -0.90449105682197639     
  0.17849999999999999        -0.83451250536522736     
  0.17887500000000001        -0.70301564210898415     
  0.17925000000000002        -0.52678266843121313     
  0.17962500000000003        -0.32540335244926105     
  0.17999999999999999        -0.11902351062971787     
  0.18037500000000001          7.3966981216066763E-002
  0.18075000000000002         0.23882156797808032     
  0.18112500000000004         0.36516920183700746     
  0.18149999999999999         0.44830759414964250     
  0.18187500000000001         0.48829334608292568     
  0.18225000000000002         0.48967273585899163     
  0.18262500000000004         0.45991230272217792     
  0.18300000000000000         0.40806914468988403     
  0.18337500000000001         0.34329845751701937     
  0.18375000000000002         0.27316479903401719     
  0.18412499999999998         0.20338256078994768     
  0.18450000000000000         0.13696288570419346     
  0.18487500000000001          7.4518910107947617E-002
  0.18525000000000003          1.5325531368494554E-002
  0.18562499999999998         -4.2224281601660814E-002
  0.18600000000000000         -9.9297077348134477E-002
  0.18637500000000001        -0.15552860338780899     
  0.18675000000000003        -0.20888121784541766     
  0.18712499999999999        -0.25558235496551052     
  0.18750000000000000        -0.29021763931817501     
  0.18787500000000001        -0.30736335570261702     
  0.18825000000000003        -0.30214141141757095     
  0.18862499999999999        -0.27174317781232671     
  0.18900000000000000        -0.21628602429688054     