  -1.4999999999999999E-002     0.0000000000000000     
  -1.4624999999999999E-002     0.0000000000000000     
  -1.4249999999999999E-002     0.0000000000000000     
  -1.3874999999999998E-002     0.0000000000000000     
  -1.3500000000000000E-002     0.0000000000000000     
  -1.3125000000000000E-002     0.0000000000000000     
  -1.2749999999999999E-002     0.0000000000000000     
  -1.2374999999999999E-002     0.0000000000000000     
  -1.2000000000000000E-002     0.0000000000000000     
  -1.1625000000000000E-002     0.0000000000000000     
  -1.1250000000000000E-002     0.0000000000000000     
  -1.0874999999999999E-002     0.0000000000000000     
  -1.0499999999999999E-002     0.0000000000000000     
  -1.0124999999999999E-002     0.0000000000000000     
  -9.7499999999999983E-003     0.0000000000000000     
  -9.3749999999999979E-003     0.0000000000000000     
  -8.9999999999999993E-003     0.0000000000000000     
  -8.6249999999999990E-003     0.0000000000000000     
  -8.2500000000000004E-003     0.0000000000000000     
  -7.8750000000000001E-003     0.0000000000000000     
  -7.4999999999999989E-003     0.0000000000000000     
  -7.1249999999999994E-003     0.0000000000000000     
  -6.7499999999999991E-003     0.0000000000000000     
  -6.3749999999999987E-003     0.0000000000000000     
  -5.9999999999999984E-003     0.0000000000000000     
  -5.6249999999999998E-003     0.0000000000000000     
  -5.2499999999999995E-003     0.0000000000000000     
  -4.8749999999999991E-003     0.0000000000000000     
  -4.4999999999999988E-003     0.0000000000000000     
  -4.1249999999999985E-003     0.0000000000000000     
  -3.7499999999999981E-003     0.0000000000000000     
  -3.3749999999999995E-003     0.0000000000000000     
  -2.9999999999999992E-003     0.0000000000000000     
  -2.6249999999999989E-003     0.0000000000000000     
  -2.2499999999999985E-003     0.0000000000000000     
  -1.8749999999999982E-003     0.0000000000000000     
  -1.4999999999999996E-003     0.0000000000000000     
  -1.1249999999999993E-003     0.0000000000000000     
  -7.4999999999999893E-004     0.0000000000000000     
  -3.7499999999999860E-004     0.0000000000000000     
   1.7347234759768071E-018     0.0000000000000000     
   3.7500000000000207E-004     0.0000000000000000     
   7.5000000000000067E-004     0.0000000000000000     
   1.1250000000000010E-003     0.0000000000000000     
   1.5000000000000013E-003     0.0000000000000000     
   1.8750000000000017E-003     0.0000000000000000     
   2.2500000000000020E-003     0.0000000000000000     
   2.6250000000000023E-003     0.0000000000000000     
   3.0000000000000027E-003     0.0000000000000000     
   3.3750000000000030E-003     0.0000000000000000     
   3.7499999999999999E-003     0.0000000000000000     
   4.1250000000000002E-003     0.0000000000000000     
   4.5000000000000005E-003     0.0000000000000000     
   4.8750000000000009E-003     0.0000000000000000     
   5.2500000000000012E-003     0.0000000000000000     
   5.6250000000000015E-003     0.0000000000000000     
   6.0000000000000019E-003     0.0000000000000000     
   6.3750000000000022E-003     0.0000000000000000     
   6.7500000000000025E-003     0.0000000000000000     
   7.1250000000000029E-003     0.0000000000000000     
   7.5000000000000032E-003     0.0000000000000000     
   7.8750000000000001E-003     0.0000000000000000     
   8.2500000000000004E-003     0.0000000000000000     
   8.6250000000000007E-003     0.0000000000000000     
   9.0000000000000011E-003     0.0000000000000000     
   9.3750000000000014E-003     0.0000000000000000     
   9.7500000000000017E-003     0.0000000000000000     
   1.0125000000000002E-002     0.0000000000000000     
   1.0500000000000002E-002     0.0000000000000000     
   1.0875000000000003E-002     0.0000000000000000     
   1.1250000000000003E-002     0.0000000000000000     
   1.1625000000000003E-002     0.0000000000000000     
   1.2000000000000000E-002     0.0000000000000000     
   1.2375000000000001E-002     0.0000000000000000     
   1.2750000000000001E-002     0.0000000000000000     
   1.3125000000000001E-002     0.0000000000000000     
   1.3500000000000002E-002     0.0000000000000000     
   1.3875000000000002E-002     0.0000000000000000     
   1.4250000000000002E-002     0.0000000000000000     
   1.4625000000000003E-002     0.0000000000000000     
   1.5000000000000003E-002     0.0000000000000000     
   1.5375000000000003E-002     0.0000000000000000     
   1.5750000000000004E-002     0.0000000000000000     
   1.6125000000000000E-002     0.0000000000000000     
   1.6500000000000001E-002     0.0000000000000000     
   1.6875000000000001E-002     0.0000000000000000     
   1.7250000000000001E-002     0.0000000000000000     
   1.7625000000000002E-002     0.0000000000000000     
   1.8000000000000002E-002    -1.4571920498383354E-052
   1.8375000000000002E-002    -1.0925269271418664E-049
   1.8750000000000003E-002     1.4205348972917572E-037
   1.9125000000000003E-002     3.3106498832887123E-035
   1.9500000000000003E-002     1.2237100793281042E-034
   1.9875000000000004E-002    -1.9697368219568551E-033
   2.0250000000000004E-002    -8.9556761524545231E-032
   2.0625000000000004E-002    -1.5448667888452997E-031
   2.1000000000000005E-002     3.4062888555158152E-030
   2.1375000000000005E-002    -3.8057094606332716E-031
   2.1750000000000005E-002    -9.3738691983337454E-029
   2.2125000000000006E-002     4.4569981838379854E-028
   2.2499999999999999E-002    -6.2015435647860039E-028
   2.2875000000000000E-002    -3.4121886129203933E-027
   2.3250000000000000E-002     2.6383689815069053E-026
   2.3625000000000000E-002    -1.1559313852689720E-025
   2.4000000000000000E-002     5.1449050764029167E-025
   2.4375000000000001E-002     2.4196900052615565E-024
   2.4750000000000001E-002     9.1334135642310735E-024
   2.5125000000000001E-002     3.4556795301410353E-023
   2.5500000000000002E-002     1.3131488435845349E-022
   2.5875000000000002E-002     4.8757036370964883E-022
   2.6250000000000002E-002     1.7803299901107035E-021
   2.6625000000000003E-002     6.3802635312004875E-021
   2.7000000000000003E-002     2.2452132067771845E-020
   2.7375000000000003E-002     7.7574963274829363E-020
   2.7750000000000004E-002     2.6315831301667222E-019
   2.8125000000000004E-002     8.7648639109032253E-019
   2.8500000000000004E-002     2.8661208128455323E-018
   2.8875000000000005E-002     9.2014789708645296E-018
   2.9250000000000005E-002     2.9002171669692682E-017
   2.9625000000000005E-002     8.9742844996970378E-017
   3.0000000000000006E-002     2.7262113258786049E-016
   3.0375000000000006E-002     8.1302377775894168E-016
   3.0750000000000000E-002     2.3802092504503120E-015
   3.1125000000000000E-002     6.8405360572709488E-015
   3.1500000000000000E-002     1.9298170099351763E-014
   3.1875000000000001E-002     5.3441597217911106E-014
   3.2250000000000001E-002     1.4526849472735270E-013
   3.2625000000000001E-002     3.8759347082934304E-013
   3.3000000000000002E-002     1.0150430199079913E-012
   3.3375000000000002E-002     2.6090103678079600E-012
   3.3750000000000002E-002     6.5817668252264911E-012
   3.4125000000000003E-002     1.6295212455046602E-011
   3.4500000000000003E-002     3.9592963906833621E-011
   3.4875000000000003E-002     9.4405160487864894E-011
   3.5250000000000004E-002     2.2088890998675638E-010
   3.5625000000000004E-002     5.0713975479466101E-010
   3.6000000000000004E-002     1.1424613565939040E-009
   3.6375000000000005E-002     2.5251430194001105E-009
   3.6750000000000005E-002     5.4757045180999648E-009
   3.7125000000000005E-002     1.1648519396814871E-008
   3.7500000000000006E-002     2.4308170856864316E-008
   3.7875000000000006E-002     4.9756613785907674E-008
   3.8250000000000006E-002     9.9892591956916101E-008
   3.8625000000000007E-002     1.9667964590579117E-007
   3.9000000000000000E-002     3.7974321981887224E-007
   3.9375000000000000E-002     7.1892632346457734E-007
   3.9750000000000001E-002     1.3343971405247357E-006
   4.0125000000000001E-002     2.4280153894346568E-006
   4.0500000000000001E-002     4.3302524804029101E-006
   4.0875000000000002E-002     7.5686156266374545E-006
   4.1250000000000002E-002     1.2962440747036462E-005
   4.1625000000000002E-002     2.1749381263239002E-005
   4.2000000000000003E-002     3.5744647030692529E-005
   4.2375000000000003E-002     5.7529245439974711E-005
   4.2750000000000003E-002     9.0648997854743689E-005
   4.3125000000000004E-002     1.3980511741020513E-004
   4.3500000000000004E-002     2.1097426478060481E-004
   4.3875000000000004E-002     3.1140538039326659E-004
   4.4250000000000005E-002     4.4941512876116372E-004
   4.4625000000000005E-002     6.3385365349261612E-004
   4.5000000000000005E-002     8.7318914728379488E-004
   4.5375000000000006E-002     1.1742534651082103E-003
   4.5750000000000006E-002     1.5403268131052737E-003
   4.6125000000000006E-002     1.9692472122912761E-003
   4.6500000000000007E-002     2.4511880813186406E-003
   4.6875000000000007E-002     2.9669899306873841E-003
   4.7250000000000000E-002     3.4869422035691986E-003
   4.7625000000000001E-002     3.9716583930653210E-003
   4.8000000000000001E-002     4.3734476203712005E-003
   4.8375000000000001E-002     4.6419148501244505E-003
   4.8750000000000002E-002     4.7288008198063339E-003
   4.9125000000000002E-002     4.5974473612250110E-003
   4.9500000000000002E-002     4.2298801728031582E-003
   4.9875000000000003E-002     3.6350005693608764E-003
   5.0250000000000003E-002     2.8527270209608604E-003
   5.0625000000000003E-002     1.9541298724550494E-003
   5.1000000000000004E-002     1.0347357754441849E-003
   5.1375000000000004E-002     2.0388727850896048E-004
   5.1750000000000004E-002    -4.3399992514804185E-004
   5.2125000000000005E-002    -8.0100201756959095E-004
   5.2500000000000005E-002    -8.6318676134175109E-004
   5.2875000000000005E-002    -6.5121680066199475E-004
   5.3250000000000006E-002    -2.6637240917474147E-004
   5.3625000000000006E-002     1.2282847462499155E-004
   5.4000000000000006E-002     2.9474590123597952E-004
   5.4375000000000007E-002     3.4406698376447349E-006
   5.4750000000000007E-002    -9.8432795223013687E-004
   5.5125000000000007E-002    -2.8486986454324126E-003
   5.5500000000000008E-002    -5.6815893098099528E-003
   5.5875000000000008E-002    -9.4541588272137825E-003
   5.6250000000000008E-002    -1.4013880520119083E-002
   5.6625000000000009E-002    -1.9075086889068695E-002
   5.7000000000000009E-002    -2.4264712514408857E-002
   5.7375000000000009E-002    -2.9135881130923698E-002
   5.7750000000000010E-002    -3.3245942822911795E-002
   5.8125000000000010E-002    -3.6182397973462704E-002
   5.8500000000000010E-002    -3.7624998204786597E-002
   5.8875000000000011E-002    -3.7375019759428689E-002
   5.9250000000000011E-002    -3.5365732680157011E-002
   5.9624999999999997E-002    -3.1676964954549483E-002
   5.9999999999999998E-002    -2.6497881145493007E-002
   6.0374999999999998E-002    -2.0111255242569816E-002
   6.0749999999999998E-002    -1.2857301743284292E-002
   6.1124999999999999E-002    -5.0798556425850792E-003
   6.1499999999999999E-002     2.8770652941464475E-003
   6.1874999999999999E-002     1.0718343853174944E-002
   6.2250000000000000E-002     1.8199332113829673E-002
   6.2625000000000000E-002     2.5111062244459775E-002
   6.3000000000000000E-002     3.1300855831418693E-002
   6.3375000000000001E-002     3.6632422278360242E-002
   6.3750000000000001E-002     4.0981928290596943E-002
   6.4125000000000001E-002     4.4229009952459923E-002
   6.4500000000000002E-002     4.6239399176297546E-002
   6.4875000000000002E-002     4.6888450739289850E-002
   6.5250000000000002E-002     4.6046140428126020E-002
   6.5625000000000003E-002     4.3632966361000954E-002
   6.6000000000000003E-002     3.9612190739903380E-002
   6.6375000000000003E-002     3.4055454579586697E-002
   6.6750000000000004E-002     2.7129483152837773E-002
   6.7125000000000004E-002     1.9151917505986406E-002
   6.7500000000000004E-002     1.0557662056472680E-002
   6.7875000000000005E-002     1.9064564396270348E-003
   6.8250000000000005E-002    -6.1647848841957127E-003
   6.8625000000000005E-002    -1.3002350022296374E-002
   6.9000000000000006E-002    -1.7980538503683956E-002
   6.9375000000000006E-002    -2.0617153246567384E-002
   6.9750000000000006E-002    -2.0591054456884899E-002
   7.0125000000000007E-002    -1.7849084449486713E-002
   7.0500000000000007E-002    -1.2600107809422360E-002
   7.0875000000000007E-002    -5.3294439639516569E-003
   7.1250000000000008E-002     3.2212216785073482E-003
   7.1625000000000008E-002     1.2161517613756317E-002
   7.2000000000000008E-002     2.0481085435332693E-002
   7.2375000000000009E-002     2.7230457824638409E-002
   7.2750000000000009E-002     3.1567778473563970E-002
   7.3125000000000009E-002     3.2889073471764556E-002
   7.3500000000000010E-002     3.0914965785368315E-002
   7.3875000000000010E-002     2.5692306917490103E-002
   7.4250000000000010E-002     1.7637084776702224E-002
   7.4625000000000011E-002     7.4737870790569181E-003
   7.5000000000000011E-002    -3.8263626545777234E-003
   7.5375000000000011E-002    -1.5157598082341364E-002
   7.5750000000000012E-002    -2.5383398296556361E-002
   7.6124999999999998E-002    -3.3465169951442698E-002
   7.6499999999999999E-002    -3.8567383655627750E-002
   7.6874999999999999E-002    -4.0159907550092799E-002
   7.7249999999999999E-002    -3.8048628770399807E-002
   7.7625000000000000E-002    -3.2413283238577680E-002
   7.8000000000000000E-002    -2.3795443539878169E-002
   7.8375000000000000E-002    -1.2995844773361171E-002
   7.8750000000000001E-002    -1.0488586604408207E-003
   7.9125000000000001E-002     1.0939865211874868E-002
   7.9500000000000001E-002     2.1879500400305233E-002
   7.9875000000000002E-002     3.0800155656960627E-002
   8.0250000000000002E-002     3.6958156757881680E-002
   8.0625000000000002E-002     3.9884739359334898E-002
   8.1000000000000003E-002     3.9422700562730215E-002
   8.1375000000000003E-002     3.5709215095587853E-002
   8.1750000000000003E-002     2.9161986937524878E-002
   8.2125000000000004E-002     2.0402596643259774E-002
   8.2500000000000004E-002     1.0202787357022441E-002
   8.2875000000000004E-002    -6.2955564858581641E-004
   8.3250000000000005E-002    -1.1277024232572945E-002
   8.3625000000000005E-002    -2.1036657984876393E-002
   8.4000000000000005E-002    -2.9349975477864082E-002
   8.4375000000000006E-002    -3.5848157185815237E-002
   8.4750000000000006E-002    -4.0427623403384176E-002
   8.5125000000000006E-002    -4.3165887751073967E-002
   8.5500000000000007E-002    -4.4424951055940971E-002
   8.5875000000000007E-002    -4.4724027955518747E-002
   8.6250000000000007E-002    -4.4696583561737876E-002
   8.6625000000000008E-002    -4.5066696946901484E-002
   8.7000000000000008E-002    -4.6437009677730498E-002
   8.7375000000000008E-002    -4.9301408385857191E-002
   8.7750000000000009E-002    -5.3888086005595880E-002
   8.8125000000000009E-002    -6.0094243673700157E-002
   8.8500000000000009E-002    -6.7506007387374611E-002
   8.8875000000000010E-002    -7.5363090859139226E-002
   8.9250000000000010E-002    -8.2670200504189204E-002
   8.9625000000000010E-002    -8.8289592993354399E-002
   9.0000000000000011E-002    -9.1077217629946944E-002
   9.0375000000000011E-002    -9.0017191252504250E-002
   9.0750000000000011E-002    -8.4364180569364705E-002
   9.1125000000000012E-002    -7.3718820976052452E-002
   9.1500000000000012E-002    -5.8062597170710620E-002
   9.1875000000000012E-002    -3.7788212119054476E-002
   9.2250000000000013E-002    -1.3604293380625097E-002
   9.2624999999999999E-002     1.3499619514525229E-002
   9.2999999999999999E-002     4.2375803316870998E-002
   9.3375000000000000E-002     7.1760356656760421E-002
   9.3750000000000000E-002    0.10041700392560229     
   9.4125000000000000E-002    0.12709389958231498     
   9.4500000000000001E-002    0.15060883578864853     
   9.4875000000000001E-002    0.16988902460218494     
   9.5250000000000001E-002    0.18388203196547673     
   9.5625000000000002E-002    0.19174050834165651     
   9.6000000000000002E-002    0.19273614005272854     
   9.6375000000000002E-002    0.18638284409427100     
   9.6750000000000003E-002    0.17254634769274302     
   9.7125000000000003E-002    0.15142770902160116     
   9.7500000000000003E-002    0.12370617534767961     
   9.7875000000000004E-002     9.0498710537469440E-002
   9.8250000000000004E-002     5.3335096563214245E-002
   9.8625000000000004E-002     1.4082229959935161E-002
   9.9000000000000005E-002    -2.5181118260086011E-002
   9.9375000000000005E-002    -6.2337305294925996E-002
   9.9750000000000005E-002    -9.5389389874645042E-002
  0.10012500000000001        -0.12263648741369046     
  0.10050000000000001        -0.14276640489670767     
  0.10087500000000001        -0.15498916894221862     
  0.10125000000000001        -0.15904499102266090     
  0.10162500000000001        -0.15515485698625772     
  0.10200000000000001        -0.14404597201581282     
  0.10237500000000001        -0.12674059374812160     
  0.10275000000000001        -0.10454991451744035     
  0.10312500000000001         -7.8911625547867278E-002
  0.10350000000000001         -5.1246238442655211E-002
  0.10387500000000001         -2.2975600029216024E-002
  0.10425000000000001          4.6771640772509592E-003
  0.10462500000000001          3.0592109970607455E-002
  0.10500000000000001          5.3893700639199148E-002
  0.10537500000000001          7.3833253742140087E-002
  0.10575000000000001          8.9867605470962356E-002
  0.10612500000000001         0.10158388763871885     
  0.10650000000000001         0.10864925832733113     
  0.10687500000000001         0.11089924221427491     
  0.10725000000000001         0.10821396549289615     
  0.10762500000000001         0.10060114897471803     
  0.10800000000000001          8.8224850496493465E-002
  0.10837500000000001          7.1415795106670524E-002
  0.10875000000000001          5.0706916636787475E-002
  0.10912500000000000          2.6895205374508020E-002
  0.10950000000000000          1.0084224197229132E-003
  0.10987500000000000         -2.5707208368773417E-002
  0.11025000000000000         -5.1847503596757348E-002
  0.11062500000000001         -7.5938556122993869E-002
  0.11100000000000000         -9.6547627319672841E-002
  0.11137500000000002        -0.11241344032676236     
  0.11175000000000000        -0.12252642441484835     
  0.11212500000000002        -0.12625249029273172     
  0.11250000000000000        -0.12331052203634701     
  0.11287500000000002        -0.11386555638225555     
  0.11325000000000000         -9.8420942246406018E-002
  0.11362500000000002         -7.7804176002536266E-002
  0.11400000000000000         -5.3075054935628314E-002
  0.11437500000000002         -2.5485982094412839E-002
  0.11475000000000000          3.6218296043608392E-003
  0.11512500000000002          3.2826919903007207E-002
  0.11550000000000001          6.0669275213312696E-002
  0.11587500000000002          8.5722586038179852E-002
  0.11625000000000001         0.10653734138113329     
  0.11662500000000002         0.12181816232660375     
  0.11700000000000001         0.13040094363165300     
  0.11737499999999999         0.13138359932642577     
  0.11775000000000001         0.12425955687345364     
  0.11812499999999999         0.10894769524587007     
  0.11850000000000001          8.5983999079660270E-002
  0.11887499999999999          5.6421724250796335E-002
  0.11925000000000001          2.1996142271616170E-002
  0.11962500000000000         -1.5136102634174548E-002
  0.12000000000000001         -5.2400494825477859E-002
  0.12037500000000000         -8.6997009091116365E-002
  0.12075000000000001        -0.11631294062861285     
  0.12112500000000000        -0.13788600014194341     
  0.12150000000000001        -0.14991173122365914     
  0.12187500000000000        -0.15132190691525954     
  0.12225000000000001        -0.14192143711843691     
  0.12262500000000000        -0.12250582207719049     
  0.12300000000000001         -9.4779517117876952E-002
  0.12337500000000000         -6.1208529405106057E-002
  0.12375000000000001         -2.4803769988464473E-002
  0.12412500000000000          1.1223860716810585E-002
  0.12450000000000001          4.3771389778877449E-002
  0.12487500000000000          7.0186385518974298E-002
  0.12525000000000003          8.8617496645799945E-002
  0.12562499999999999          9.8075807148442704E-002
  0.12600000000000000          9.8670727205216580E-002
  0.12637500000000002          9.1393632937597225E-002
  0.12675000000000003          7.8051043244098395E-002
  0.12712499999999999          6.0935746703789401E-002
  0.12750000000000000          4.2452136710059638E-002
  0.12787500000000002          2.4936137373624261E-002
  0.12825000000000003          1.0141568600548656E-002
  0.12862499999999999         -7.5348734589619770E-004
  0.12900000000000000         -7.2990205867256809E-003
  0.12937500000000002         -9.8166885796558048E-003
  0.12975000000000003         -9.1090320299454190E-003
  0.13012499999999999         -6.3290464411465113E-003
  0.13050000000000000         -2.7771869246620375E-003
  0.13087500000000002          4.8501622648880710E-004
  0.13125000000000003          2.6975730978334566E-003
  0.13162499999999999          3.5269650536217906E-003
  0.13200000000000001          3.1849775666519587E-003
  0.13237500000000002          2.1703187888488023E-003
  0.13275000000000003          1.2683769330359383E-003
  0.13312499999999999          1.2356011475252362E-003
  0.13350000000000001          2.6039576994562712E-003
  0.13387500000000002          5.5664004357204259E-003
  0.13424999999999998          9.7005726463838138E-003
  0.13462499999999999          1.4215433352067073E-002
  0.13500000000000001          1.7821671246642634E-002
  0.13537500000000002          1.9098756813260863E-002
  0.13574999999999998          1.6820952185484104E-002
  0.13612500000000000          1.0086514213275458E-002
  0.13650000000000001         -1.1844644301967646E-003
  0.13687500000000002         -1.6216865634311361E-002
  0.13724999999999998         -3.3374206406189835E-002
  0.13762500000000000         -5.0222684787432921E-002
  0.13800000000000001         -6.3937666752899927E-002
  0.13837500000000003         -7.1727847636795614E-002
  0.13874999999999998         -7.1306580323990038E-002
  0.13912500000000000         -6.1338976797843323E-002
  0.13950000000000001         -4.1852547191691167E-002
  0.13987500000000003         -1.4271165275807577E-002
  0.14024999999999999          1.8623131490993428E-002
  0.14062500000000000          5.2951873894782439E-002
  0.14100000000000001          8.4334973079447290E-002
  0.14137500000000003         0.10841102351477444     
  0.14174999999999999         0.12148468413037833     
  0.14212500000000000         0.12107729656356611     
  0.14250000000000002         0.10630990120026262     
  0.14287500000000003          7.7987942285746667E-002
  0.14324999999999999          3.8662616162506450E-002
  0.14362500000000000         -7.8256864217625417E-003
  0.14400000000000002         -5.6745780620177551E-002
  0.14437500000000003        -0.10302683416383891     
  0.14474999999999999        -0.14198549361759011     
  0.14512500000000000        -0.16973454217046574     
  0.14550000000000002        -0.18365791060297501     
  0.14587500000000003        -0.18264923561554278     
  0.14624999999999999        -0.16711142285906555     
  0.14662500000000001        -0.13882337752768772     
  0.14700000000000002        -0.10061890997935269     
  0.14737500000000003         -5.6068518622137950E-002
  0.14774999999999999         -8.8728506716716695E-003
  0.14812500000000001          3.7310529940609419E-002
  0.14850000000000002          7.9365620365132700E-002
  0.14887500000000004         0.11487270365414644     
  0.14924999999999999         0.14213542591008563     
  0.14962500000000001         0.16023817876091881     
  0.15000000000000002         0.16892933133926269     
  0.15037499999999998         0.16838642689522004     
  0.15075000000000000         0.15918337358892015     
  0.15112500000000001         0.14214486570247450     
  0.15150000000000002         0.11818403927916230     
  0.15187499999999998          8.8531857973293895E-002
  0.15225000000000000          5.4540175274395794E-002
  0.15262500000000001          1.7896968026866300E-002
  0.15300000000000002         -1.9382088646564703E-002
  0.15337499999999998         -5.5024561442479657E-002
  0.15375000000000000         -8.6517122433513893E-002
  0.15412500000000001        -0.11145866542471368     
  0.15450000000000003        -0.12764449323506527     
  0.15487499999999998        -0.13350844587229332     
  0.15525000000000000        -0.12834155214962017     
  0.15562500000000001        -0.11245233457203824     
  0.15600000000000003         -8.7307729096584838E-002
  0.15637499999999999         -5.5365144509749262E-002
  0.15675000000000000         -1.9891236899140054E-002
  0.15712500000000001          1.5466062139852053E-002
  0.15750000000000003          4.7085381217348586E-002
  0.15787499999999999          7.1882899411642026E-002
  0.15825000000000000          8.7672134406316618E-002
  0.15862500000000002          9.3448143381823681E-002
  0.15900000000000003          8.9530604169430414E-002
  0.15937499999999999          7.7395497632572960E-002
  0.15975000000000000          5.9509999391384530E-002
  0.16012500000000002          3.8890783743585927E-002
  0.16050000000000003          1.8624205196661262E-002
  0.16087499999999999          1.5102893279529579E-003
  0.16125000000000000         -1.0421740591060449E-002
  0.16162500000000002         -1.6138656303767838E-002
  0.16200000000000003         -1.5616817218424860E-002
  0.16237499999999999         -9.8371022942269210E-003
  0.16275000000000001         -5.7533717889230330E-004
  0.16312500000000002          1.0032016611882227E-002
  0.16350000000000003          1.9728223434624312E-002
  0.16387499999999999          2.6450304549124337E-002
  0.16425000000000001          2.8726797404130359E-002
  0.16462500000000002          2.5558762912278255E-002
  0.16500000000000004          1.6666170195585826E-002
  0.16537499999999999          2.2550068390881479E-003
  0.16575000000000001         -1.7062201550670265E-002
  0.16612500000000002         -4.0361849166796748E-002
  0.16650000000000004         -6.6529354212774686E-002
  0.16687500000000000         -9.4284908001918175E-002
  0.16725000000000001        -0.12214952031938439     
  0.16762500000000002        -0.14835997509851981     
  0.16799999999999998        -0.17090392356911405     
  0.16837500000000000        -0.18749443261652696     
  0.16875000000000001        -0.19574885082685151     
  0.16912500000000003        -0.19342077937653643     
  0.16949999999999998        -0.17875039121544015     
  0.16987500000000000        -0.15076402472162448     
  0.17025000000000001        -0.10967212141258208     
  0.17062500000000003         -5.6984092507098641E-002
  0.17099999999999999          4.4817978687259497E-003
  0.17137500000000000          7.0736504530218042E-002
  0.17175000000000001         0.13711400550927175     
  0.17212500000000003         0.19866682431484789     
  0.17249999999999999         0.25089875557735142     
  0.17287500000000000         0.29014470206035875     
  0.17325000000000002         0.31410996424923165     
  0.17362500000000003         0.32200231235445803     
  0.17399999999999999         0.31452876130548330     
  0.17437500000000000         0.29373937649198389     
  0.17475000000000002         0.26256076253893496     
  0.17512500000000003         0.22439290696384445     
  0.17549999999999999         0.18265657804582933     
  0.17587500000000000         0.14023340177125193     
  0.17625000000000002          9.9389303956967892E-002
  0.17662500000000003          6.1390604447098263E-002
  0.17699999999999999          2.6583892922606774E-002
  0.17737500000000000         -5.4804063893074944E-003
  0.17775000000000002         -3.6046621552406670E-002
  0.17812500000000003         -6.6695681803279699E-002
  0.17849999999999999         -9.9245756801283266E-002
  0.17887500000000001        -0.13540336136823738     
  0.17925000000000002        -0.17653272704608916     
  0.17962500000000003        -0.22326789652315551     
  0.17999999999999999        -0.27544670929796772     
  0.18037500000000001        -0.33175246751341175     
  0.18075000000000002        -0.38965903277749969     
  0.18112500000000004        -0.44554024550785526     
  0.18149999999999999        -0.49462000009415352     
  0.18187500000000001        -0.53154172427217150     
  0.18225000000000002        -0.55070391049340006     
  0.18262500000000004        -0.54693088214066343     
  0.18300000000000000        -0.51610126346150709     
  0.18337500000000001        -0.45581854386989362     
  0.18375000000000002        -0.36590245559662837     
  0.18412499999999998        -0.24854862111520110     
  0.18450000000000000        -0.10857745908681182     
  0.18487500000000001          4.7108732701943511E-002
  0.18525000000000003         0.20988775919828612     
  0.18562499999999998         0.37023518209026951     
  0.18600000000000000         0.51855798096209949     
  0.18637500000000001         0.64608079768157967     
  0.18675000000000003         0.74559910492734893     
  0.18712499999999999         0.81192179803445685     
  0.18750000000000000         0.84249503749328403     
  0.18787500000000001         0.83705533135113208     
  0.18825000000000003         0.79778614674167692     
  0.18862499999999999         0.72868126314566850     
  0.18900000000000000         0.63511338246344007     