  -1.4999999999999999E-002     0.0000000000000000     
  -1.4624999999999999E-002     0.0000000000000000     
  -1.4249999999999999E-002     0.0000000000000000     
  -1.3874999999999998E-002     0.0000000000000000     
  -1.3500000000000000E-002     0.0000000000000000     
  -1.3125000000000000E-002     0.0000000000000000     
  -1.2749999999999999E-002     0.0000000000000000     
  -1.2374999999999999E-002     0.0000000000000000     
  -1.2000000000000000E-002     0.0000000000000000     
  -1.1625000000000000E-002     0.0000000000000000     
  -1.1250000000000000E-002     0.0000000000000000     
  -1.0874999999999999E-002     0.0000000000000000     
  -1.0499999999999999E-002     0.0000000000000000     
  -1.0124999999999999E-002     0.0000000000000000     
  -9.7499999999999983E-003     0.0000000000000000     
  -9.3749999999999979E-003     0.0000000000000000     
  -8.9999999999999993E-003     0.0000000000000000     
  -8.6249999999999990E-003     0.0000000000000000     
  -8.2500000000000004E-003     0.0000000000000000     
  -7.8750000000000001E-003     0.0000000000000000     
  -7.4999999999999989E-003     0.0000000000000000     
  -7.1249999999999994E-003     0.0000000000000000     
  -6.7499999999999991E-003     0.0000000000000000     
  -6.3749999999999987E-003     0.0000000000000000     
  -5.9999999999999984E-003     0.0000000000000000     
  -5.6249999999999998E-003     0.0000000000000000     
  -5.2499999999999995E-003     0.0000000000000000     
  -4.8749999999999991E-003     0.0000000000000000     
  -4.4999999999999988E-003     0.0000000000000000     
  -4.1249999999999985E-003     0.0000000000000000     
  -3.7499999999999981E-003     0.0000000000000000     
  -3.3749999999999995E-003     0.0000000000000000     
  -2.9999999999999992E-003     0.0000000000000000     
  -2.6249999999999989E-003     0.0000000000000000     
  -2.2499999999999985E-003     0.0000000000000000     
  -1.8749999999999982E-003     0.0000000000000000     
  -1.4999999999999996E-003     0.0000000000000000     
  -1.1249999999999993E-003     0.0000000000000000     
  -7.4999999999999893E-004     0.0000000000000000     
  -3.7499999999999860E-004     0.0000000000000000     
   1.7347234759768071E-018     0.0000000000000000     
   3.7500000000000207E-004     0.0000000000000000     
   7.5000000000000067E-004     0.0000000000000000     
   1.1250000000000010E-003     0.0000000000000000     
   1.5000000000000013E-003     0.0000000000000000     
   1.8750000000000017E-003     0.0000000000000000     
   2.2500000000000020E-003     0.0000000000000000     
   2.6250000000000023E-003     0.0000000000000000     
   3.0000000000000027E-003     0.0000000000000000     
   3.3750000000000030E-003     0.0000000000000000     
   3.7499999999999999E-003     0.0000000000000000     
   4.1250000000000002E-003     0.0000000000000000     
   4.5000000000000005E-003     0.0000000000000000     
   4.8750000000000009E-003     0.0000000000000000     
   5.2500000000000012E-003     0.0000000000000000     
   5.6250000000000015E-003     0.0000000000000000     
   6.0000000000000019E-003     0.0000000000000000     
   6.3750000000000022E-003     0.0000000000000000     
   6.7500000000000025E-003     0.0000000000000000     
   7.1250000000000029E-003     0.0000000000000000     
   7.5000000000000032E-003    -1.2373844807434273E-051
   7.8750000000000001E-003     1.5284307449531996E-050
   8.2500000000000004E-003     9.7346484217278264E-037
   8.6250000000000007E-003    -7.8813262438053577E-035
   9.0000000000000011E-003    -1.0788855827618292E-033
   9.3750000000000014E-003    -1.2795328528005104E-032
   9.7500000000000017E-003    -1.6013350335892023E-032
   1.0125000000000002E-002     6.3435715671241793E-031
   1.0500000000000002E-002     1.4869572525841901E-030
   1.0875000000000003E-002    -2.3615137727709940E-029
   1.1250000000000003E-002     2.2624571647850218E-029
   1.1625000000000003E-002     4.9781771665530907E-028
   1.2000000000000000E-002    -3.1213846407744646E-027
   1.2375000000000001E-002     9.8769047947873713E-027
   1.2750000000000001E-002    -1.9832601484337833E-026
   1.3125000000000001E-002     1.8239164641828468E-026
   1.3500000000000002E-002     5.1372052675983227E-026
   1.3875000000000002E-002     4.7280599945084891E-024
   1.4250000000000002E-002     1.4287345448252423E-023
   1.4625000000000003E-002     5.7635611349714880E-023
   1.5000000000000003E-002     2.1525752444581325E-022
   1.5375000000000003E-002     8.0681080068385890E-022
   1.5750000000000004E-002     2.9574246072987268E-021
   1.6125000000000000E-002     1.0650279402842517E-020
   1.6500000000000001E-002     3.7655660280016100E-020
   1.6875000000000001E-002     1.3071715774367939E-019
   1.7250000000000001E-002     4.4551959418979080E-019
   1.7625000000000002E-002     1.4907981009314300E-018
   1.8000000000000002E-002     4.8976716761149002E-018
   1.8375000000000002E-002     1.5796522640356286E-017
   1.8750000000000003E-002     5.0019016250175801E-017
   1.9125000000000003E-002     1.5548612403900227E-016
   1.9500000000000003E-002     4.7449410939426496E-016
   1.9875000000000004E-002     1.4214656379443401E-015
   2.0250000000000004E-002     4.1802228406268985E-015
   2.0625000000000004E-002     1.2067310613230061E-014
   2.1000000000000005E-002     3.4194397943637259E-014
   2.1375000000000005E-002     9.5109007421922590E-014
   2.1750000000000005E-002     2.5965547247631960E-013
   2.2125000000000006E-002     6.9577030164801969E-013
   2.2499999999999999E-002     1.8298549945077400E-012
   2.2875000000000000E-002     4.7231156586324323E-012
   2.3250000000000000E-002     1.1964304836201468E-011
   2.3625000000000000E-002     2.9742274852973694E-011
   2.4000000000000000E-002     7.2555271966206083E-011
   2.4375000000000001E-002     1.7368219863750712E-010
   2.4750000000000001E-002     4.0794614718453867E-010
   2.5125000000000001E-002     9.4014419873225505E-010
   2.5500000000000002E-002     2.1257017321407714E-009
   2.5875000000000002E-002     4.7151856406915339E-009
   2.6250000000000002E-002     1.0260195457973000E-008
   2.6625000000000003E-002     2.1899841578630427E-008
   2.7000000000000003E-002     4.5847555357450619E-008
   2.7375000000000003E-002     9.4134895764110333E-008
   2.7750000000000004E-002     1.8953950986745423E-007
   2.8125000000000004E-002     3.7421294143627066E-007
   2.8500000000000004E-002     7.2436961584323231E-007
   2.8875000000000005E-002     1.3745944887388137E-006
   2.9250000000000005E-002     2.5567999654857713E-006
   2.9625000000000005E-002     4.6609165821341945E-006
   3.0000000000000006E-002     8.3256738113087974E-006
   3.0375000000000006E-002     1.4570358466840796E-005
   3.0750000000000000E-002     2.4976544881469540E-005
   3.1125000000000000E-002     4.1928360694639950E-005
   3.1500000000000000E-002     6.8911529012188471E-005
   3.1875000000000001E-002     1.1085366342770164E-004
   3.2250000000000001E-002     1.7448441752226549E-004
   3.2625000000000001E-002     2.6862033451087252E-004
   3.3000000000000002E-002     4.0431316559681095E-004
   3.3375000000000002E-002     5.9466276960810959E-004
   3.3750000000000002E-002     8.5421207093161152E-004
   3.4125000000000003E-002     1.1974990209126419E-003
   3.4500000000000003E-002     1.6370937778534900E-003
   3.4875000000000003E-002     2.1802840066611467E-003
   3.5250000000000004E-002     2.8253465471036205E-003
   3.5625000000000004E-002     3.5569933067534287E-003
   3.6000000000000004E-002     4.3421038643963426E-003
   3.6375000000000005E-002     5.1264402335493443E-003
   3.6750000000000005E-002     5.8330523543719736E-003
   3.7125000000000005E-002     6.3655624387394267E-003
   3.7500000000000006E-002     6.6129233088393722E-003
   3.7875000000000006E-002     6.4636538060533835E-003
   3.8250000000000006E-002     5.8189799018532459E-003
   3.8625000000000007E-002     4.6161053155407495E-003
   3.9000000000000000E-002     2.8440599033649322E-003
   3.9375000000000000E-002     5.6449756505317836E-004
   3.9750000000000001E-002    -2.0840066897050403E-003
   4.0125000000000001E-002    -4.8826417748780550E-003
   4.0500000000000001E-002    -7.5601869220036037E-003
   4.0875000000000002E-002    -9.8147924049331314E-003
   4.1250000000000002E-002    -1.1371535093579042E-002
   4.1625000000000002E-002    -1.2030458207806797E-002
   4.2000000000000003E-002    -1.1721724151998653E-002
   4.2375000000000003E-002    -1.0545433383816988E-002
   4.2750000000000003E-002    -8.7919835321780913E-003
   4.3125000000000004E-002    -6.9277209449251694E-003
   4.3500000000000004E-002    -5.5535457755443041E-003
   4.3875000000000004E-002    -5.3195925091579005E-003
   4.4250000000000005E-002    -6.8362278321536527E-003
   4.4625000000000005E-002    -1.0554844788733066E-002
   4.5000000000000005E-002    -1.6672844042267772E-002
   4.5375000000000006E-002    -2.5063396598258951E-002
   4.5750000000000006E-002    -3.5238626002075189E-002
   4.6125000000000006E-002    -4.6372716205563505E-002
   4.6500000000000007E-002    -5.7370884077414364E-002
   4.6875000000000007E-002    -6.6989251261856189E-002
   4.7250000000000000E-002    -7.3966372375069367E-002
   4.7625000000000001E-002    -7.7171857952838846E-002
   4.8000000000000001E-002    -7.5760778465126910E-002
   4.8375000000000001E-002    -6.9225950700205888E-002
   4.8750000000000002E-002    -5.7516970591165367E-002
   4.9125000000000002E-002    -4.0964355894922984E-002
   4.9500000000000002E-002    -2.0288185447555666E-002
   4.9875000000000003E-002     3.5197121646673409E-003
   5.0250000000000003E-002     2.9304915054242257E-002
   5.0625000000000003E-002     5.5857854859015822E-002
   5.1000000000000004E-002     8.2020862282600360E-002
   5.1375000000000004E-002    0.10675772051238150     
   5.1750000000000004E-002    0.12919038683235473     
   5.2125000000000005E-002    0.14859285382302864     
   5.2500000000000005E-002    0.16440326757884183     
   5.2875000000000005E-002    0.17609783045375221     
   5.3250000000000006E-002    0.18325029964802977     
   5.3625000000000006E-002    0.18542316824906535     
   5.4000000000000006E-002    0.18218724503510031     
   5.4375000000000007E-002    0.17319777362463748     
   5.4750000000000007E-002    0.15816432984519754     
   5.5125000000000007E-002    0.13705345739345159     
   5.5500000000000008E-002    0.11007298793536996     
   5.5875000000000008E-002     7.7849209864413002E-002
   5.6250000000000008E-002     4.1400316848018329E-002
   5.6625000000000009E-002     2.1564402072153429E-003
   5.7000000000000009E-002    -3.8077242015090731E-002
   5.7375000000000009E-002    -7.7321010857045791E-002
   5.7750000000000010E-002   -0.11351325288104958     
   5.8125000000000010E-002   -0.14477764925609249     
   5.8500000000000010E-002   -0.16955908252779339     
   5.8875000000000011E-002   -0.18681061337875587     
   5.9250000000000011E-002   -0.19606771026104111     
   5.9624999999999997E-002   -0.19746636785814542     
   5.9999999999999998E-002   -0.19167315279149927     
   6.0374999999999998E-002   -0.17977306103790050     
   6.0749999999999998E-002   -0.16305847367794124     
   6.1124999999999999E-002   -0.14288884137964089     
   6.1499999999999999E-002   -0.12050827347116608     
   6.1874999999999999E-002    -9.6896745574301280E-002
   6.2250000000000000E-002    -7.2795785022417459E-002
   6.2625000000000000E-002    -4.8634264771693442E-002
   6.3000000000000000E-002    -2.4659512930137430E-002
   6.3375000000000001E-002    -1.0547895119295699E-003
   6.3750000000000001E-002     2.1965465859181698E-002
   6.4125000000000001E-002     4.4016154328346893E-002
   6.4500000000000002E-002     6.4435627475547236E-002
   6.4875000000000002E-002     8.2339271856239987E-002
   6.5250000000000002E-002     9.6579045775272973E-002
   6.5625000000000003E-002    0.10588397240292402     
   6.6000000000000003E-002    0.10907191171201550     
   6.6375000000000003E-002    0.10508732170896506     
   6.6750000000000004E-002     9.3356583957493328E-002
   6.7125000000000004E-002     7.3831137517633524E-002
   6.7500000000000004E-002     4.7144057628300907E-002
   6.7875000000000005E-002     1.4664465430087967E-002
   6.8250000000000005E-002    -2.1538115894723726E-002
   6.8625000000000005E-002    -5.8808913182069350E-002
   6.9000000000000006E-002    -9.4107468022896851E-002
   6.9375000000000006E-002   -0.12422946632992868     
   6.9750000000000006E-002   -0.14618510726756825     
   7.0125000000000007E-002   -0.15744254365316634     
   7.0500000000000007E-002   -0.15631854706225989     
   7.0875000000000007E-002   -0.14219177817123246     
   7.1250000000000008E-002   -0.11564810620858479     
   7.1625000000000008E-002    -7.8590466875982354E-002
   7.2000000000000008E-002    -3.4031697538261949E-002
   7.2375000000000009E-002     1.4113203082571413E-002
   7.2750000000000009E-002     6.1459985248259269E-002
   7.3125000000000009E-002    0.10362136650499693     
   7.3500000000000010E-002    0.13674331584012114     
   7.3875000000000010E-002    0.15800139000374769     
   7.4250000000000010E-002    0.16591020483785093     
   7.4625000000000011E-002    0.16054441237652778     
   7.5000000000000011E-002    0.14350522985488479     
   7.5375000000000011E-002    0.11767513619736750     
   7.5750000000000012E-002     8.6777160587235252E-002
   7.6124999999999998E-002     5.4927578866714857E-002
   7.6499999999999999E-002     2.5959553790881967E-002
   7.6874999999999999E-002     2.9896985730880638E-003
   7.7249999999999999E-002    -1.1936485868369665E-002
   7.7625000000000000E-002    -1.8102897068556542E-002
   7.8000000000000000E-002    -1.6043505004676800E-002
   7.8375000000000000E-002    -7.3803329889349026E-003
   7.8750000000000001E-002     5.5805850764862452E-003
   7.9125000000000001E-002     2.0203733952069723E-002
   7.9500000000000001E-002     3.4027730067443432E-002
   7.9875000000000002E-002     4.5053204031980820E-002
   8.0250000000000002E-002     5.2045759326325748E-002
   8.0625000000000002E-002     5.4564881343784871E-002
   8.1000000000000003E-002     5.2948108575441064E-002
   8.1375000000000003E-002     4.8080466491758851E-002
   8.1750000000000003E-002     4.1060414022301109E-002
   8.2125000000000004E-002     3.3081962931609754E-002
   8.2500000000000004E-002     2.4860713871262340E-002
   8.2875000000000004E-002     1.6769976760016517E-002
   8.3250000000000005E-002     8.5329986872102366E-003
   8.3625000000000005E-002    -5.3754545742728480E-004
   8.4000000000000005E-002    -1.1301558802787890E-002
   8.4375000000000006E-002    -2.4654091852662673E-002
   8.4750000000000006E-002    -4.0912115620141618E-002
   8.5125000000000006E-002    -5.9785414047293678E-002
   8.5500000000000007E-002    -8.0030536675525774E-002
   8.5875000000000007E-002    -9.9525740950590053E-002
   8.6250000000000007E-002   -0.11550311328042190     
   8.6625000000000008E-002   -0.12489910245104316     
   8.7000000000000008E-002   -0.12485724382794691     
   8.7375000000000008E-002   -0.11334160159221379     
   8.7750000000000009E-002    -8.9620203975021004E-002
   8.8125000000000009E-002    -5.4469318519384732E-002
   8.8500000000000009E-002    -1.0456995278111416E-002
   8.8875000000000010E-002     3.8467161474362369E-002
   8.9250000000000010E-002     8.7263433211595742E-002
   8.9625000000000010E-002    0.13049876816360120     
   9.0000000000000011E-002    0.16306866966124292     
   9.0375000000000011E-002    0.18084870633625666     
   9.0750000000000011E-002    0.18129716985478114     
   9.1125000000000012E-002    0.16361361281638687     
   9.1500000000000012E-002    0.12902496598114868     
   9.1875000000000012E-002     8.0301106873177389E-002
   9.2250000000000013E-002     2.1544193559900421E-002
   9.2624999999999999E-002    -4.2432845715247608E-002
   9.2999999999999999E-002   -0.10673514070025197     
   9.3375000000000000E-002   -0.16669901646691393     
   9.3750000000000000E-002   -0.21847885269540337     
   9.4125000000000000E-002   -0.25905221831586100     
   9.4500000000000001E-002   -0.28645080866596839     
   9.4875000000000001E-002   -0.29954105515211810     
   9.5250000000000001E-002   -0.29800993783663504     
   9.5625000000000002E-002   -0.28221821355049825     
   9.6000000000000002E-002   -0.25309203103519873     
   9.6375000000000002E-002   -0.21211075853568484     
   9.6750000000000003E-002   -0.16131264139956480     
   9.7125000000000003E-002   -0.10337752008277548     
   9.7500000000000003E-002    -4.1399790035538793E-002
   9.7875000000000004E-002     2.1017896567905568E-002
   9.8250000000000004E-002     8.0264187701549333E-002
   9.8625000000000004E-002    0.13299515687049196     
   9.9000000000000005E-002    0.17660972660512919     
   9.9375000000000005E-002    0.20981475975197453     
   9.9750000000000005E-002    0.23275643987617525     
  0.10012500000000001         0.24733682466199530     
  0.10050000000000001         0.25683402747917372     
  0.10087500000000001         0.26544554457650138     
  0.10125000000000001         0.27763914509417187     
  0.10162500000000001         0.29692760074814639     
  0.10200000000000001         0.32526808613225144     
  0.10237500000000001         0.36217116345854472     
  0.10275000000000001         0.40429653242598357     
  0.10312500000000001         0.44565123488181474     
  0.10350000000000001         0.47804685015544357     
  0.10387500000000001         0.49222408106142157     
  0.10425000000000001         0.47898881024573448     
  0.10462500000000001         0.43088444803541176     
  0.10500000000000001         0.34321474186750978     
  0.10537500000000001         0.21532370053992050     
  0.10575000000000001          5.0993332802187527E-002
  0.10612500000000001        -0.14151063400513669     
  0.10650000000000001        -0.35009651644902162     
  0.10687500000000001        -0.55966401593749027     
  0.10725000000000001        -0.75390202485341418     
  0.10762500000000001        -0.91666243168770434     
  0.10800000000000001         -1.0336750337384895     
  0.10837500000000001         -1.0942306119300174     
  0.10875000000000001         -1.0920434620413468     
  0.10912500000000000         -1.0262881454562933     
  0.10950000000000000        -0.90156524107647273     
  0.10987500000000000        -0.72758301153956650     
  0.11025000000000000        -0.51840244354788323     
  0.11062500000000001        -0.29078370790582092     
  0.11100000000000000         -6.2876513000806419E-002
  0.11137500000000002         0.14783117211616470     
  0.11175000000000000         0.32617388702993783     
  0.11212500000000002         0.46068790057385151     
  0.11250000000000000         0.54501081277660446     
  0.11287500000000002         0.57808994721301710     
  0.11325000000000000         0.56444321002189701     
  0.11362500000000002         0.51340535869288118     
  0.11400000000000000         0.43802267212273005     
  0.11437500000000002         0.35332813829713217     
  0.11475000000000000         0.27474224999923569     
  0.11512500000000002         0.21586402572055635     
  0.11550000000000001         0.18695852487093506     
  0.11587500000000002         0.19341596025545948     
  0.11625000000000001         0.23487605271225148     
  0.11662500000000002         0.30506467437584883     
  0.11700000000000001         0.39261948181452211     
  0.11737499999999999         0.48198276798197326     
  0.11775000000000001         0.55594656962837807     
  0.11812499999999999         0.59777474420820831     
  0.11850000000000001         0.59366537146586118     
  0.11887499999999999         0.53537758755790987     
  0.11925000000000001         0.42166890404677188     
  0.11962500000000000         0.25884555417549560     
  0.12000000000000001          6.0711905086047485E-002
  0.12037500000000000        -0.15314736282541913     
  0.12075000000000001        -0.36005510967324700     
  0.12112500000000000        -0.53702231847949189     
  0.12150000000000001        -0.66413468694823108     
  0.12187500000000000        -0.72760634933093127     
  0.12225000000000001        -0.72140958401571786     
  0.12262500000000000        -0.64845623079306547     
  0.12300000000000001        -0.51997494514661058     
  0.12337500000000000        -0.35379246272709763     
  0.12375000000000001        -0.17180528076803306     
  0.12412500000000000          3.1359280715963847E-003
  0.12450000000000001         0.15032091189995569     
  0.12487500000000000         0.25390233396412037     
  0.12525000000000003         0.30461218606622004     
  0.12562499999999999         0.30044808438458342     
  0.12600000000000000         0.24665925780892450     
  0.12637500000000002         0.15426257861924192     
  0.12675000000000003          3.8219534973663205E-002
  0.12712499999999999         -8.4563349694294423E-002
  0.12750000000000000        -0.19799616275434906     
  0.12787500000000002        -0.28834205179446676     
  0.12825000000000003        -0.34586950290639928     
  0.12862499999999999        -0.36589876083366457     
  0.12900000000000000        -0.34857681599347695     
  0.12937500000000002        -0.29875895621665538     
  0.12975000000000003        -0.22474450657466838     
  0.13012499999999999        -0.13689085796433981     
  0.13050000000000000         -4.6340564025182551E-002
  0.13087500000000002          3.6741708020973526E-002
  0.13125000000000003         0.10425692032003578     
  0.13162499999999999         0.15082410850560513     
  0.13200000000000001         0.17433358113381864     
  0.13237500000000002         0.17570281329771609     
  0.13275000000000003         0.15826881646650082     
  0.13312499999999999         0.12723344632431377     
  0.13350000000000001          8.8456795901415045E-002
  0.13387500000000002          4.8087716781734083E-002
  0.13424999999999998          1.1307072571715662E-002
  0.13462499999999999         -1.7535358102698240E-002
  0.13500000000000001         -3.5557931522829003E-002
  0.13537500000000002         -4.1211209482878715E-002
  0.13574999999999998         -3.4132032981489022E-002
  0.13612500000000000         -1.5094399365868452E-002
  0.13650000000000001          1.4152810985225212E-002
  0.13687500000000002          5.1033615878369604E-002
  0.13724999999999998          9.2414918816639380E-002
  0.13762500000000000         0.13449820212024624     
  0.13800000000000001         0.17322349677080762     
  0.13837500000000003         0.20467961748228924     
  0.13874999999999998         0.22516862286242223     
  0.13912500000000000         0.23188994890740194     
  0.13950000000000001         0.22343141177552089     
  0.13987500000000003         0.19969532241123022     
  0.14024999999999999         0.16226550748200125     
  0.14062500000000000         0.11440505546199331     
  0.14100000000000001          6.0395315492246138E-002
  0.14137500000000003          5.0531525516971203E-003
  0.14174999999999999         -4.6465622287698030E-002
  0.14212500000000000         -8.9930105942913813E-002
  0.14250000000000002        -0.12224914906309788     
  0.14287500000000003        -0.14159726668878597     
  0.14324999999999999        -0.14780651986585208     
  0.14362500000000000        -0.14215689976264637     
  0.14400000000000002        -0.12676421164004931     
  0.14437500000000003        -0.10449463437044916     
  0.14474999999999999         -7.8141454531617832E-002
  0.14512500000000000         -5.0365641200119278E-002
  0.14550000000000002         -2.3400835999157873E-002
  0.14587500000000003          1.3175424195736923E-003
  0.14624999999999999          2.2490693103859760E-002
  0.14662500000000001          3.9367058184535050E-002
  0.14700000000000002          5.1225061176908324E-002
  0.14737500000000003          5.7175286133409775E-002
  0.14774999999999999          5.6473891134300944E-002
  0.14812500000000001          4.8031049740620155E-002
  0.14850000000000002          3.1224861516188758E-002
  0.14887500000000004          5.7799306808922757E-003
  0.14924999999999999         -2.7658786747568748E-002
  0.14962500000000001         -6.7014696529512155E-002
  0.15000000000000002        -0.10878353401890589     
  0.15037499999999998        -0.14780949139250210     
  0.15075000000000000        -0.17751731581741967     
  0.15112500000000001        -0.19085332378232744     
  0.15150000000000002        -0.18127812989345704     
  0.15187499999999998        -0.14399004786068559     
  0.15225000000000000         -7.8098903372749065E-002
  0.15262500000000001          1.2799938401260754E-002
  0.15300000000000002         0.11921582478701165     
  0.15337499999999998         0.22619793533327559     
  0.15375000000000000         0.31498680558600556     
  0.15412500000000001         0.36504669291161801     
  0.15450000000000003         0.35805081869360322     
  0.15487499999999998         0.28188770929202522     
  0.15525000000000000         0.13400821341346875     
  0.15562500000000001         -7.5760063057998844E-002
  0.15600000000000003        -0.32464013932398561     
  0.15637499999999999        -0.57898887996227133     
  0.15675000000000000        -0.79805629985952253     
  0.15712500000000001        -0.94023197191430330     
  0.15750000000000003        -0.97008069710650757     
  0.15787499999999999        -0.86504968051584141     
  0.15825000000000000        -0.62065576932531863     
  0.15862500000000002        -0.25308917251382568     
  0.15900000000000003         0.20132922649982443     
  0.15937499999999999         0.69034610107635030     
  0.15975000000000000          1.1524697073997021     
  0.16012500000000002          1.5252992609947189     
  0.16050000000000003          1.7547594690270332     
  0.16087499999999999          1.8028045149179577     
  0.16125000000000000          1.6525725564274205     
  0.16162500000000002          1.3115990636121291     
  0.16200000000000003         0.81070892369958059     
  0.16237499999999999         0.19958197062057204     
  0.16275000000000001        -0.45852053148692573     
  0.16312500000000002         -1.0953643005549201     
  0.16350000000000003         -1.6453672395182690     
  0.16387499999999999         -2.0526757221087051     
  0.16425000000000001         -2.2772484378802136     
  0.16462500000000002         -2.2981727812875952     
  0.16500000000000004         -2.1147463039223040     
  0.16537499999999999         -1.7456499557382050     
  0.16575000000000001         -1.2258618409937265     
  0.16612500000000002        -0.60249510487490177     
  0.16650000000000004          7.0699042688076696E-002
  0.16687500000000000         0.73820700402939221     
  0.16725000000000001          1.3478539652177117     
  0.16762500000000002          1.8548849393037972     
  0.16799999999999998          2.2249280009896424     
  0.16837500000000000          2.4360062839027017     
  0.16875000000000001          2.4789959134448907     
  0.16912500000000003          2.3572052080121511     
  0.16949999999999998          2.0852440459969244     
  0.16987500000000000          1.6868474794954973     
  0.17025000000000001          1.1924695443900788     
  0.17062500000000003         0.63701243703028132     
  0.17099999999999999          5.6584597800972664E-002
  0.17137500000000000        -0.51326854188836113     
  0.17175000000000001         -1.0399239711486838     
  0.17212500000000003         -1.4955456896490076     
  0.17249999999999999         -1.8580233918707929     
  0.17287500000000000         -2.1120507022187596     
  0.17325000000000002         -2.2490899396497208     
  0.17362500000000003         -2.2676047439837563     
  0.17399999999999999         -2.1722066602737375     
  0.17437500000000000         -1.9731698858014657     
  0.17475000000000002         -1.6854067975930414     
  0.17512500000000003         -1.3270560790021415     
  0.17549999999999999        -0.91881187948533127     
  0.17587500000000000        -0.48232958368669054     
  0.17625000000000002         -3.9332803253327719E-002
  0.17662500000000003         0.38954326060190514     
  0.17699999999999999         0.78557734085491826     
  0.17737500000000000          1.1326223835001452     
  0.17775000000000002          1.4176371026670767     
  0.17812500000000003          1.6313536960017525     
  0.17849999999999999          1.7678663072329213     
  0.17887500000000001          1.8250182011482818     
  0.17925000000000002          1.8042051178982841     
  0.17962500000000003          1.7097207780042813     
  0.17999999999999999          1.5488584419535374     
  0.18037500000000001          1.3311715449746262     
  0.18075000000000002          1.0675322877995612     
  0.18112500000000004         0.77064449036548210     
  0.18149999999999999         0.45343229292331999     
  0.18187500000000001         0.12884173070403532     
  0.18225000000000002        -0.19043175412949670     
  0.18262500000000004        -0.49249177334463679     
  0.18300000000000000        -0.76705896829185294     
  0.18337500000000001         -1.0052177851011814     
  0.18375000000000002         -1.1995784271615659     
  0.18412499999999998         -1.3451733781109192     
  0.18450000000000000         -1.4386118472618439     
  0.18487500000000001         -1.4784304963391290     
  0.18525000000000003         -1.4654938500354806     
  0.18562499999999998         -1.4019317735140278     
  0.18600000000000000         -1.2917075849091071     
  0.18637500000000001         -1.1402967435855853     
  0.18675000000000003        -0.95398394941118658     
  0.18712499999999999        -0.74017315979490017     
  0.18750000000000000        -0.50665439413369917     
  0.18787500000000001        -0.26152310455923461     
  0.18825000000000003         -1.2945245639011116E-002
  0.18862499999999999         0.23123212578276886     
  0.18900000000000000         0.46362844215017240     