  -1.4999999999999999E-002     0.0000000000000000     
  -1.4624999999999999E-002     0.0000000000000000     
  -1.4249999999999999E-002     0.0000000000000000     
  -1.3874999999999998E-002     0.0000000000000000     
  -1.3500000000000000E-002     0.0000000000000000     
  -1.3125000000000000E-002     0.0000000000000000     
  -1.2749999999999999E-002     0.0000000000000000     
  -1.2374999999999999E-002     0.0000000000000000     
  -1.2000000000000000E-002     0.0000000000000000     
  -1.1625000000000000E-002     0.0000000000000000     
  -1.1250000000000000E-002     0.0000000000000000     
  -1.0874999999999999E-002     0.0000000000000000     
  -1.0499999999999999E-002     0.0000000000000000     
  -1.0124999999999999E-002     0.0000000000000000     
  -9.7499999999999983E-003     0.0000000000000000     
  -9.3749999999999979E-003     0.0000000000000000     
  -8.9999999999999993E-003     0.0000000000000000     
  -8.6249999999999990E-003     0.0000000000000000     
  -8.2500000000000004E-003     0.0000000000000000     
  -7.8750000000000001E-003     0.0000000000000000     
  -7.4999999999999989E-003     0.0000000000000000     
  -7.1249999999999994E-003     0.0000000000000000     
  -6.7499999999999991E-003     0.0000000000000000     
  -6.3749999999999987E-003     0.0000000000000000     
  -5.9999999999999984E-003     0.0000000000000000     
  -5.6249999999999998E-003     0.0000000000000000     
  -5.2499999999999995E-003     0.0000000000000000     
  -4.8749999999999991E-003     0.0000000000000000     
  -4.4999999999999988E-003     0.0000000000000000     
  -4.1249999999999985E-003     0.0000000000000000     
  -3.7499999999999981E-003     0.0000000000000000     
  -3.3749999999999995E-003     0.0000000000000000     
  -2.9999999999999992E-003     0.0000000000000000     
  -2.6249999999999989E-003     0.0000000000000000     
  -2.2499999999999985E-003     0.0000000000000000     
  -1.8749999999999982E-003     0.0000000000000000     
  -1.4999999999999996E-003     0.0000000000000000     
  -1.1249999999999993E-003     0.0000000000000000     
  -7.4999999999999893E-004     0.0000000000000000     
  -3.7499999999999860E-004     0.0000000000000000     
   1.7347234759768071E-018     0.0000000000000000     
   3.7500000000000207E-004     0.0000000000000000     
   7.5000000000000067E-004     0.0000000000000000     
   1.1250000000000010E-003     0.0000000000000000     
   1.5000000000000013E-003     0.0000000000000000     
   1.8750000000000017E-003     0.0000000000000000     
   2.2500000000000020E-003     0.0000000000000000     
   2.6250000000000023E-003     0.0000000000000000     
   3.0000000000000027E-003     0.0000000000000000     
   3.3750000000000030E-003     0.0000000000000000     
   3.7499999999999999E-003     0.0000000000000000     
   4.1250000000000002E-003     0.0000000000000000     
   4.5000000000000005E-003     0.0000000000000000     
   4.8750000000000009E-003     0.0000000000000000     
   5.2500000000000012E-003     0.0000000000000000     
   5.6250000000000015E-003     0.0000000000000000     
   6.0000000000000019E-003     0.0000000000000000     
   6.3750000000000022E-003     0.0000000000000000     
   6.7500000000000025E-003     0.0000000000000000     
   7.1250000000000029E-003     0.0000000000000000     
   7.5000000000000032E-003     0.0000000000000000     
   7.8750000000000001E-003     0.0000000000000000     
   8.2500000000000004E-003     0.0000000000000000     
   8.6250000000000007E-003     0.0000000000000000     
   9.0000000000000011E-003     0.0000000000000000     
   9.3750000000000014E-003     0.0000000000000000     
   9.7500000000000017E-003     0.0000000000000000     
   1.0125000000000002E-002     0.0000000000000000     
   1.0500000000000002E-002     0.0000000000000000     
   1.0875000000000003E-002     0.0000000000000000     
   1.1250000000000003E-002     0.0000000000000000     
   1.1625000000000003E-002     0.0000000000000000     
   1.2000000000000000E-002     0.0000000000000000     
   1.2375000000000001E-002     0.0000000000000000     
   1.2750000000000001E-002     0.0000000000000000     
   1.3125000000000001E-002     0.0000000000000000     
   1.3500000000000002E-002     0.0000000000000000     
   1.3875000000000002E-002     0.0000000000000000     
   1.4250000000000002E-002     0.0000000000000000     
   1.4625000000000003E-002     0.0000000000000000     
   1.5000000000000003E-002     0.0000000000000000     
   1.5375000000000003E-002     0.0000000000000000     
   1.5750000000000004E-002     0.0000000000000000     
   1.6125000000000000E-002     0.0000000000000000     
   1.6500000000000001E-002     0.0000000000000000     
   1.6875000000000001E-002     0.0000000000000000     
   1.7250000000000001E-002     0.0000000000000000     
   1.7625000000000002E-002     0.0000000000000000     
   1.8000000000000002E-002     3.7087117040803002E-039
   1.8375000000000002E-002     2.4057641717213763E-036
   1.8750000000000003E-002     1.3594590044794022E-034
   1.9125000000000003E-002     1.4790456465802686E-033
   1.9500000000000003E-002     2.5067873466260187E-032
   1.9875000000000004E-002     1.8987847606919070E-032
   2.0250000000000004E-002    -1.0768815534885472E-030
   2.0625000000000004E-002    -5.3012110116624366E-031
   2.1000000000000005E-002     3.4735472989325834E-029
   2.1375000000000005E-002    -1.1803836475657956E-028
   2.1750000000000005E-002    -1.9002571089484146E-028
   2.2125000000000006E-002     3.2874941198568625E-027
   2.2499999999999999E-002    -1.7284434887739418E-026
   2.2875000000000000E-002     6.3728125530843371E-026
   2.3250000000000000E-002    -2.1535718126805586E-025
   2.3625000000000000E-002     1.2775132088049347E-024
   2.4000000000000000E-002     3.5418614560377162E-024
   2.4375000000000001E-002     1.5187709854765397E-023
   2.4750000000000001E-002     5.5850315839504889E-023
   2.5125000000000001E-002     2.1213575530579295E-022
   2.5500000000000002E-002     7.8270852458626344E-022
   2.5875000000000002E-002     2.8405791579617267E-021
   2.6250000000000002E-002     1.0120778733082413E-020
   2.6625000000000003E-002     3.5403255350854953E-020
   2.7000000000000003E-002     1.2159822903527739E-019
   2.7375000000000003E-002     4.1005184419925494E-019
   2.7750000000000004E-002     1.3576130570483740E-018
   2.8125000000000004E-002     4.4129928796007729E-018
   2.8500000000000004E-002     1.4083248225348949E-017
   2.8875000000000005E-002     4.4123743463613940E-017
   2.9250000000000005E-002     1.3571848170905699E-016
   2.9625000000000005E-002     4.0981789638206183E-016
   3.0000000000000006E-002     1.2148453983136683E-015
   3.0375000000000006E-002     3.5351981648087066E-015
   3.0750000000000000E-002     1.0098718864299654E-014
   3.1125000000000000E-002     2.8317991146870541E-014
   3.1500000000000000E-002     7.7945610017821901E-014
   3.1875000000000001E-002     2.1059265828758307E-013
   3.2250000000000001E-002     5.5846886655885419E-013
   3.2625000000000001E-002     1.4536253560656317E-012
   3.3000000000000002E-002     3.7135152895042164E-012
   3.3375000000000002E-002     9.3106274088350531E-012
   3.3750000000000002E-002     2.2909843553723770E-011
   3.4125000000000003E-002     5.5321218091125746E-011
   3.4500000000000003E-002     1.3109152192956955E-010
   3.4875000000000003E-002     3.0482205452277566E-010
   3.5250000000000004E-002     6.9547906777210809E-010
   3.5625000000000004E-002     1.5569367513893565E-009
   3.6000000000000004E-002     3.4196092455212692E-009
   3.6375000000000005E-002     7.3684390761011866E-009
   3.6750000000000005E-002     1.5575463837374407E-008
   3.7125000000000005E-002     3.2295464470217914E-008
   3.7500000000000006E-002     6.5681704489625625E-008
   3.7875000000000006E-002     1.3101155257360655E-007
   3.8250000000000006E-002     2.5627286548801858E-007
   3.8625000000000007E-002     4.9156545129512451E-007
   3.9000000000000000E-002     9.2447863028201791E-007
   3.9375000000000000E-002     1.7045190017107565E-006
   3.9750000000000001E-002     3.0806182552262074E-006
   4.0125000000000001E-002     5.4569248887103454E-006
   4.0500000000000001E-002     9.4724877091423961E-006
   4.0875000000000002E-002     1.6110676714745594E-005
   4.1250000000000002E-002     2.6841973587732849E-005
   4.1625000000000002E-002     4.3800530369796930E-005
   4.2000000000000003E-002     6.9985072383552550E-005
   4.2375000000000003E-002     1.0946618574518026E-004
   4.2750000000000003E-002     1.6756331635433489E-004
   4.3125000000000004E-002     2.5093036374643067E-004
   4.3500000000000004E-002     3.6749551287626437E-004
   4.3875000000000004E-002     5.2610941803240760E-004
   4.4250000000000005E-002     7.3590509723951681E-004
   4.4625000000000005E-002     1.0051745905699495E-003
   4.5000000000000005E-002     1.3397874330539376E-003
   4.5375000000000006E-002     1.7413473542908378E-003
   4.5750000000000006E-002     2.2047540351321331E-003
   4.6125000000000006E-002     2.7164842981294898E-003
   4.6500000000000007E-002     3.2524486199667357E-003
   4.6875000000000007E-002     3.7778973278972793E-003
   4.7250000000000000E-002     4.2483249159329176E-003
   4.7625000000000001E-002     4.6123226262701281E-003
   4.8000000000000001E-002     4.8171970577995521E-003
   4.8375000000000001E-002     4.8166323104715473E-003
   4.8750000000000002E-002     4.5781325573708460E-003
   4.9125000000000002E-002     4.0930578235361757E-003
   4.9500000000000002E-002     3.3821479210021897E-003
   4.9875000000000003E-002     2.4999566489214359E-003
   5.0250000000000003E-002     1.5311576315743961E-003
   5.0625000000000003E-002     5.8375259745740244E-004
   5.1000000000000004E-002    -2.2803403023894246E-004
   5.1375000000000004E-002    -8.0093135280338065E-004
   5.1750000000000004E-002    -1.0680466150974235E-003
   5.2125000000000005E-002    -1.0165140323740646E-003
   5.2500000000000005E-002    -7.0376462384792444E-004
   5.2875000000000005E-002    -2.6283232215335619E-004
   5.3250000000000006E-002     1.0880695101195444E-004
   5.3625000000000006E-002     1.6345694361556554E-004
   5.4000000000000006E-002    -3.5151787376485862E-004
   5.4375000000000007E-002    -1.6693490426241062E-003
   5.4750000000000007E-002    -3.9450468100417808E-003
   5.5125000000000007E-002    -7.2338525331151343E-003
   5.5500000000000008E-002    -1.1456975814966484E-002
   5.5875000000000008E-002    -1.6403143106964599E-002
   5.6250000000000008E-002    -2.1736004131771097E-002
   5.6625000000000009E-002    -2.7031466790743877E-002
   5.7000000000000009E-002    -3.1819227654881557E-002
   5.7375000000000009E-002    -3.5640238660994528E-002
   5.7750000000000010E-002    -3.8096316807713804E-002
   5.8125000000000010E-002    -3.8897374443613311E-002
   5.8500000000000010E-002    -3.7888430185382460E-002
   5.8875000000000011E-002    -3.5060290810993933E-002
   5.9250000000000011E-002    -3.0543821691607333E-002
   5.9624999999999997E-002    -2.4588088005610291E-002
   5.9999999999999998E-002    -1.7514241806034433E-002
   6.0374999999999998E-002    -9.6938653893188630E-003
   6.0749999999999998E-002    -1.4967814603000376E-003
   6.1124999999999999E-002     6.7337495999625560E-003
   6.1499999999999999E-002     1.4697459282739196E-002
   6.1874999999999999E-002     2.2154312903505190E-002
   6.2250000000000000E-002     2.8906511650965874E-002
   6.2625000000000000E-002     3.4804075610436788E-002
   6.3000000000000000E-002     3.9717888115936836E-002
   6.3375000000000001E-002     4.3524870809555138E-002
   6.3750000000000001E-002     4.6111013273847978E-002
   6.4125000000000001E-002     4.7349904025511577E-002
   6.4500000000000002E-002     4.7128682660819265E-002
   6.4875000000000002E-002     4.5355249362028893E-002
   6.5250000000000002E-002     4.1983838267283177E-002
   6.5625000000000003E-002     3.7047305961728755E-002
   6.6000000000000003E-002     3.0688150541633687E-002
   6.6375000000000003E-002     2.3169647796558522E-002
   6.6750000000000004E-002     1.4893032103197614E-002
   6.7125000000000004E-002     6.3908962585157861E-003
   6.7500000000000004E-002    -1.7196119720266022E-003
   6.7875000000000005E-002    -8.7555059233538138E-003
   6.8250000000000005E-002    -1.4074205079259664E-002
   6.8625000000000005E-002    -1.7110760608000659E-002
   6.9000000000000006E-002    -1.7490169029651597E-002
   6.9375000000000006E-002    -1.5068113280956426E-002
   6.9750000000000006E-002    -9.9867248125233739E-003
   7.0125000000000007E-002    -2.7017917245973373E-003
   7.0500000000000007E-002     6.0724865675479021E-003
   7.0875000000000007E-002     1.5384755363660942E-002
   7.1250000000000008E-002     2.4170518530887974E-002
   7.1625000000000008E-002     3.1352234999169448E-002
   7.2000000000000008E-002     3.5959990804878009E-002
   7.2375000000000009E-002     3.7275514670503579E-002
   7.2750000000000009E-002     3.4895323276818602E-002
   7.3125000000000009E-002     2.8822808991201987E-002
   7.3500000000000010E-002     1.9462867657457306E-002
   7.3875000000000010E-002     7.5992845627776244E-003
   7.4250000000000010E-002    -5.6828321741057407E-003
   7.4625000000000011E-002    -1.9105711401686765E-002
   7.5000000000000011E-002    -3.1367784593609921E-002
   7.5375000000000011E-002    -4.1230351538958682E-002
   7.5750000000000012E-002    -4.7722071869965715E-002
   7.6124999999999998E-002    -5.0188004330963640E-002
   7.6499999999999999E-002    -4.8380243780189278E-002
   7.6874999999999999E-002    -4.2507319066777946E-002
   7.7249999999999999E-002    -3.3140214449838008E-002
   7.7625000000000000E-002    -2.1213262527803794E-002
   7.8000000000000000E-002    -7.8644371849480380E-003
   7.8375000000000000E-002     5.6692611734096557E-003
   7.8750000000000001E-002     1.8162550252770915E-002
   7.9125000000000001E-002     2.8585875808203876E-002
   7.9500000000000001E-002     3.6115550001963620E-002
   7.9875000000000002E-002     4.0260990425930107E-002
   8.0250000000000002E-002     4.0856210230788295E-002
   8.0625000000000002E-002     3.8047169777743417E-002
   8.1000000000000003E-002     3.2255005148399317E-002
   8.1375000000000003E-002     2.4115834027547266E-002
   8.1750000000000003E-002     1.4367290514641657E-002
   8.2125000000000004E-002     3.8138110975488686E-003
   8.2500000000000004E-002    -6.7713743098607049E-003
   8.2875000000000004E-002    -1.6719581171438826E-002
   8.3250000000000005E-002    -2.5485285625826803E-002
   8.3625000000000005E-002    -3.2735727669561329E-002
   8.4000000000000005E-002    -3.8302835980630875E-002
   8.4375000000000006E-002    -4.2262242205652570E-002
   8.4750000000000006E-002    -4.4869248324805058E-002
   8.5125000000000006E-002    -4.6552056175636597E-002
   8.5500000000000007E-002    -4.7868974648068705E-002
   8.5875000000000007E-002    -4.9387413315027801E-002
   8.6250000000000007E-002    -5.1665803567924176E-002
   8.6625000000000008E-002    -5.5114972977375415E-002
   8.7000000000000008E-002    -5.9907422170803276E-002
   8.7375000000000008E-002    -6.5955622836646605E-002
   8.7750000000000009E-002    -7.2836223634406477E-002
   8.8125000000000009E-002    -7.9833014810712116E-002
   8.8500000000000009E-002    -8.6003624557274838E-002
   8.8875000000000010E-002    -9.0261286932306783E-002
   8.9250000000000010E-002    -9.1518284366804648E-002
   8.9625000000000010E-002    -8.8797798537707695E-002
   9.0000000000000011E-002    -8.1425442769767820E-002
   9.0375000000000011E-002    -6.9001980871447294E-002
   9.0750000000000011E-002    -5.1565434942784039E-002
   9.1125000000000012E-002    -2.9524567909841384E-002
   9.1500000000000012E-002    -3.6252851578652753E-003
   9.1875000000000012E-002     2.5090355537469224E-002
   9.2250000000000013E-002     5.5412920443022207E-002
   9.2624999999999999E-002     8.6017069032081200E-002
   9.2999999999999999E-002    0.11553686145713427     
   9.3375000000000000E-002    0.14261821947015330     
   9.3750000000000000E-002    0.16598281455263647     
   9.4125000000000000E-002    0.18440973978573089     
   9.4500000000000001E-002    0.19681069454488020     
   9.4875000000000001E-002    0.20226776860331258     
   9.5250000000000001E-002    0.20006446520322074     
   9.5625000000000002E-002    0.18982857763769528     
   9.6000000000000002E-002    0.17153763540033784     
   9.6375000000000002E-002    0.14563217473935172     
   9.6750000000000003E-002    0.11304229991945067     
   9.7125000000000003E-002     7.5189918027522645E-002
   9.7500000000000003E-002     3.3899717195164138E-002
   9.7875000000000004E-002    -8.6457791981742679E-003
   9.8250000000000004E-002    -5.0131966589240240E-002
   9.8625000000000004E-002    -8.8245240249278073E-002
   9.9000000000000005E-002   -0.12085378245053752     
   9.9375000000000005E-002   -0.14623996680452528     
   9.9750000000000005E-002   -0.16315285565383475     
  0.10012500000000001        -0.17095691708975397     
  0.10050000000000001        -0.16961785935895779     
  0.10087500000000001        -0.15970827979682201     
  0.10125000000000001        -0.14226642833213143     
  0.10162500000000001        -0.11875930803796453     
  0.10200000000000001         -9.0874725223741792E-002
  0.10237500000000001         -6.0386608765733901E-002
  0.10275000000000001         -2.9075915626913834E-002
  0.10312500000000001          1.4706825223649578E-003
  0.10350000000000001          2.9855873442581587E-002
  0.10387500000000001          5.4988302109855919E-002
  0.10425000000000001          7.6030774791425032E-002
  0.10462500000000001          9.2457992316986287E-002
  0.10500000000000001         0.10395091702862408     
  0.10537500000000001         0.11039054936038969     
  0.10575000000000001         0.11182333879543249     
  0.10612500000000001         0.10834300181589607     
  0.10650000000000001         0.10021570479328498     
  0.10687500000000001          8.7713327838083166E-002
  0.10725000000000001          7.1256561991922762E-002
  0.10762500000000001          5.1405429841886584E-002
  0.10800000000000001          2.8828924331568119E-002
  0.10837500000000001          4.4587005859568277E-003
  0.10875000000000001         -2.0692736405895508E-002
  0.10912500000000000         -4.5383183868783428E-002
  0.10950000000000000         -6.8364825546045033E-002
  0.10987500000000000         -8.8354799522954691E-002
  0.11025000000000000        -0.10419756376314152     
  0.11062500000000001        -0.11493889656402362     
  0.11100000000000000        -0.11992089046241811     
  0.11137500000000002        -0.11880484045949757     
  0.11175000000000000        -0.11161388135361158     
  0.11212500000000002         -9.8716340550743048E-002
  0.11250000000000000         -8.0726710446068356E-002
  0.11287500000000002         -5.8575600657598634E-002
  0.11325000000000000         -3.3264148958311965E-002
  0.11362500000000002         -6.0292694266471172E-003
  0.11400000000000000          2.1870616358492845E-002
  0.11437500000000002          4.9082630054910231E-002
  0.11475000000000000          7.4185991932398637E-002
  0.11512500000000002          9.5792003160768135E-002
  0.11550000000000001         0.11249399809358501     
  0.11587500000000002         0.12305242122520188     
  0.11625000000000001         0.12640261919113469     
  0.11662500000000002         0.12185291740891474     
  0.11700000000000001         0.10914344683698043     
  0.11737499999999999          8.8597507743553933E-002
  0.11775000000000001          6.1139690010298481E-002
  0.11812499999999999          2.8347050256295969E-002
  0.11850000000000001         -7.6553478506605627E-003
  0.11887499999999999         -4.4320858140541708E-002
  0.11925000000000001         -7.8810221812400216E-002
  0.11962500000000000        -0.10839838722823303     
  0.12000000000000001        -0.13051477884628260     
  0.12037500000000000        -0.14321588585496575     
  0.12075000000000001        -0.14530816380969469     
  0.12112500000000000        -0.13645835966642444     
  0.12150000000000001        -0.11745559285788926     
  0.12187500000000000         -8.9940669466946219E-002
  0.12225000000000001         -5.6463968405895112E-002
  0.12262500000000000         -2.0133351891640047E-002
  0.12300000000000001          1.5692914209233633E-002
  0.12337500000000000          4.7722032148544424E-002
  0.12375000000000001          7.3169969710048882E-002
  0.12412500000000000          9.0017597173393693E-002
  0.12450000000000001          9.7284247294578380E-002
  0.12487500000000000          9.5050610886409398E-002
  0.12525000000000003          8.4539806514410037E-002
  0.12562499999999999          6.7768167960068598E-002
  0.12600000000000000          4.7372683618410232E-002
  0.12637500000000002          2.6197131842294039E-002
  0.12675000000000003          6.8692395849764450E-003
  0.12712499999999999         -8.4403673888695119E-003
  0.12750000000000000         -1.8378216852074102E-002
  0.12787500000000002         -2.2423543738081635E-002
  0.12825000000000003         -2.0969548908499371E-002
  0.12862499999999999         -1.5076824473438669E-002
  0.12900000000000000         -6.3318474935336131E-003
  0.12937500000000002          3.5047291811993557E-003
  0.12975000000000003          1.2758127974693119E-002
  0.13012499999999999          2.0120282462653460E-002
  0.13050000000000000          2.4762719600181587E-002
  0.13087500000000002          2.6504025220034241E-002
  0.13125000000000003          2.5613078993822695E-002
  0.13162499999999999          2.2826575684400149E-002
  0.13200000000000001          1.9057457147261828E-002
  0.13237500000000002          1.5160893719378819E-002
  0.13275000000000003          1.1777131340659084E-002
  0.13312499999999999          9.1167516559261426E-003
  0.13350000000000001          6.9506880922269448E-003
  0.13387500000000002          4.6380541611331198E-003
  0.13424999999999998          1.2939425281870975E-003
  0.13462499999999999         -3.9597280941129076E-003
  0.13500000000000001         -1.1746801333293339E-002
  0.13537500000000002         -2.2129504502102944E-002
  0.13574999999999998         -3.4518628857149597E-002
  0.13612500000000000         -4.7547151548713695E-002
  0.13650000000000001         -5.9264031595674754E-002
  0.13687500000000002         -6.7367681332028140E-002
  0.13724999999999998         -6.9560648825533491E-002
  0.13762500000000000         -6.4092902547276218E-002
  0.13800000000000001         -5.0024488924530292E-002
  0.13837500000000003         -2.7660588366251661E-002
  0.13874999999999998          1.4162730914623195E-003
  0.13912500000000000          3.4377513830650262E-002
  0.13950000000000001          6.7472027995691186E-002
  0.13987500000000003          9.6522981300701666E-002
  0.14024999999999999         0.11740694351602871     
  0.14062500000000000         0.12679760343521262     
  0.14100000000000001         0.12251439377455159     
  0.14137500000000003         0.10398306232187221     
  0.14174999999999999          7.2342845593997562E-002
  0.14212500000000000          3.0319042976261833E-002
  0.14250000000000002         -1.8060499778918639E-002
  0.14287500000000003         -6.7949098008651648E-002
  0.14324999999999999        -0.11430145994371566     
  0.14362500000000000        -0.15242503174252725     
  0.14400000000000002        -0.17851656926371928     
  0.14437500000000003        -0.19012847352665557     
  0.14474999999999999        -0.18626912171778248     
  0.14512500000000000        -0.16752715364109871     
  0.14550000000000002        -0.13587827377810904     
  0.14587500000000003         -9.4369175304819142E-002
  0.14624999999999999         -4.6755082900829727E-002
  0.14662500000000001          2.9869040174071160E-003
  0.14700000000000002          5.1003303127660604E-002
  0.14737500000000003          9.3969917953225457E-002
  0.14774999999999999         0.12925517373227347     
  0.14812500000000001         0.15508942220001742     
  0.14850000000000002         0.17055005541719498     
  0.14887500000000004         0.17546125406970214     
  0.14924999999999999         0.17030610619156733     
  0.14962500000000001         0.15599339076232338     
  0.15000000000000002         0.13382225344703666     
  0.15037499999999998         0.10527299533230669     
  0.15075000000000000          7.2081875970204767E-002
  0.15112500000000001          3.6042221269690811E-002
  0.15150000000000002         -8.0460414313102135E-004
  0.15187499999999998         -3.6311870243650138E-002
  0.15225000000000000         -6.8283604301120848E-002
  0.15262500000000001         -9.4478425446638148E-002
  0.15300000000000002        -0.11297210605615252     
  0.15337499999999998        -0.12217647753805855     
  0.15375000000000000        -0.12121842697906043     
  0.15412500000000001        -0.11008083496204299     
  0.15450000000000003         -8.9730375694293665E-002
  0.15487499999999998         -6.2099501569622156E-002
  0.15525000000000000         -2.9973014467193457E-002
  0.15562500000000001          3.3087738085450791E-003
  0.15600000000000003          3.4246873514198292E-002
  0.15637499999999999          5.9609456687695822E-002
  0.15675000000000000          7.6887267250063368E-002
  0.15712500000000001          8.4611214162372855E-002
  0.15750000000000003          8.2550810121663279E-002
  0.15787499999999999          7.1786281449986958E-002
  0.15825000000000000          5.4479735727118749E-002
  0.15862500000000002          3.3559845427570414E-002
  0.15900000000000003          1.2302708252607854E-002
  0.15937499999999999         -6.2489304349325966E-003
  0.15975000000000000         -1.9615767616993480E-002
  0.16012500000000002         -2.6332653728081051E-002
  0.16050000000000003         -2.6124841365098024E-002
  0.16087499999999999         -1.9819165958531462E-002
  0.16125000000000000         -9.2746486092698185E-003
  0.16162500000000002          3.0324779560055703E-003
  0.16200000000000003          1.4407700842124144E-002
  0.16237499999999999          2.2246829949178100E-002
  0.16275000000000001          2.4585250628028864E-002
  0.16312500000000002          2.0123681218752465E-002
  0.16350000000000003          8.4704510119502779E-003
  0.16387499999999999         -9.9205157101621110E-003
  0.16425000000000001         -3.3928680359838835E-002
  0.16462500000000002         -6.1898093096359269E-002
  0.16500000000000004         -9.1786990730568008E-002
  0.16537499999999999        -0.12145485511379139     
  0.16575000000000001        -0.14860749237512594     
  0.16612500000000002        -0.17093325656012298     
  0.16650000000000004        -0.18620204147867231     
  0.16687500000000000        -0.19217965278844040     
  0.16725000000000001        -0.18695680674206877     
  0.16762500000000002        -0.16897040664473301     
  0.16799999999999998        -0.13731308720450278     
  0.16837500000000000         -9.2026306237080691E-002
  0.16875000000000001         -3.4246895699736019E-002
  0.16912500000000003          3.3602266921817225E-002
  0.16949999999999998         0.10790389966131128     
  0.16987500000000000         0.18403371690635495     
  0.17025000000000001         0.25671408220999570     
  0.17062500000000003         0.32059850188611572     
  0.17099999999999999         0.37069816720693050     
  0.17137500000000000         0.40312604012808162     
  0.17175000000000001         0.41524629491626852     
  0.17212500000000003         0.40620111768042078     
  0.17249999999999999         0.37675558254014252     
  0.17287500000000000         0.32923667052598682     
  0.17325000000000002         0.26714161647990664     
  0.17362500000000003         0.19475006523748711     
  0.17399999999999999         0.11653627820867207     
  0.17437500000000000          3.6787261099244961E-002
  0.17475000000000002         -4.0863306413656819E-002
  0.17512500000000003        -0.11368413421379159     
  0.17549999999999999        -0.17989007779301719     
  0.17587500000000000        -0.23876389775876883     
  0.17625000000000002        -0.29041211703539827     
  0.17662500000000003        -0.33554323587077728     
  0.17699999999999999        -0.37520448434802578     
  0.17737500000000000        -0.41040539049302205     
  0.17775000000000002        -0.44187202776546286     
  0.17812500000000003        -0.46972231394148967     
  0.17849999999999999        -0.49326920104314342     
  0.17887500000000001        -0.51094760597309530     
  0.17925000000000002        -0.52029508434671690     
  0.17962500000000003        -0.51810177046893047     
  0.17999999999999999        -0.50075474289996902     
  0.18037500000000001        -0.46450953361226932     
  0.18075000000000002        -0.40611159912899197     
  0.18112500000000004        -0.32330560440701983     
  0.18149999999999999        -0.21535147762067658     
  0.18187500000000001         -8.3492924827929471E-002
  0.18225000000000002          6.8784392112074877E-002
  0.18262500000000004         0.23567849026741286     
  0.18300000000000000         0.40914290621652805     
  0.18337500000000001         0.57957253131230901     
  0.18375000000000002         0.73624639596824881     
  0.18412499999999998         0.86845889684948574     
  0.18450000000000000         0.96621489797770232     
  0.18487500000000001          1.0214843563341161     
  0.18525000000000003          1.0288258220457607     
  0.18562499999999998         0.98605742754415537     
  0.18600000000000000         0.89464507333903964     
  0.18637500000000001         0.75941198248700281     
  0.18675000000000003         0.58837945708360440     
  0.18712499999999999         0.39200282273553316     
  0.18750000000000000         0.18206997315346174     
  0.18787500000000001         -2.8997335010855885E-002
  0.18825000000000003        -0.22931062941965891     
  0.18862499999999999        -0.40838408199182774     
  0.18900000000000000        -0.55759561370143884     