  -1.4999999999999999E-002     0.0000000000000000     
  -1.4624999999999999E-002     0.0000000000000000     
  -1.4249999999999999E-002     0.0000000000000000     
  -1.3874999999999998E-002     0.0000000000000000     
  -1.3500000000000000E-002     0.0000000000000000     
  -1.3125000000000000E-002     0.0000000000000000     
  -1.2749999999999999E-002     0.0000000000000000     
  -1.2374999999999999E-002     0.0000000000000000     
  -1.2000000000000000E-002     0.0000000000000000     
  -1.1625000000000000E-002     0.0000000000000000     
  -1.1250000000000000E-002     0.0000000000000000     
  -1.0874999999999999E-002     0.0000000000000000     
  -1.0499999999999999E-002     0.0000000000000000     
  -1.0124999999999999E-002     0.0000000000000000     
  -9.7499999999999983E-003     0.0000000000000000     
  -9.3749999999999979E-003     0.0000000000000000     
  -8.9999999999999993E-003     0.0000000000000000     
  -8.6249999999999990E-003     0.0000000000000000     
  -8.2500000000000004E-003     0.0000000000000000     
  -7.8750000000000001E-003     0.0000000000000000     
  -7.4999999999999989E-003     0.0000000000000000     
  -7.1249999999999994E-003     0.0000000000000000     
  -6.7499999999999991E-003     0.0000000000000000     
  -6.3749999999999987E-003     0.0000000000000000     
  -5.9999999999999984E-003     0.0000000000000000     
  -5.6249999999999998E-003     0.0000000000000000     
  -5.2499999999999995E-003     0.0000000000000000     
  -4.8749999999999991E-003     0.0000000000000000     
  -4.4999999999999988E-003     0.0000000000000000     
  -4.1249999999999985E-003     0.0000000000000000     
  -3.7499999999999981E-003     0.0000000000000000     
  -3.3749999999999995E-003     0.0000000000000000     
  -2.9999999999999992E-003     0.0000000000000000     
  -2.6249999999999989E-003     0.0000000000000000     
  -2.2499999999999985E-003     0.0000000000000000     
  -1.8749999999999982E-003     0.0000000000000000     
  -1.4999999999999996E-003     0.0000000000000000     
  -1.1249999999999993E-003     0.0000000000000000     
  -7.4999999999999893E-004     0.0000000000000000     
  -3.7499999999999860E-004     0.0000000000000000     
   1.7347234759768071E-018     0.0000000000000000     
   3.7500000000000207E-004     0.0000000000000000     
   7.5000000000000067E-004     0.0000000000000000     
   1.1250000000000010E-003     0.0000000000000000     
   1.5000000000000013E-003     0.0000000000000000     
   1.8750000000000017E-003     0.0000000000000000     
   2.2500000000000020E-003     0.0000000000000000     
   2.6250000000000023E-003     0.0000000000000000     
   3.0000000000000027E-003     0.0000000000000000     
   3.3750000000000030E-003     0.0000000000000000     
   3.7499999999999999E-003     0.0000000000000000     
   4.1250000000000002E-003     0.0000000000000000     
   4.5000000000000005E-003     0.0000000000000000     
   4.8750000000000009E-003     0.0000000000000000     
   5.2500000000000012E-003     1.7219098942863162E-052
   5.6250000000000015E-003     2.7895290515029561E-051
   6.0000000000000019E-003     1.6622265118753362E-037
   6.3750000000000022E-003     3.2763629463082621E-036
   6.7500000000000025E-003     2.3198354079385653E-034
   7.1250000000000029E-003     2.2344314745018545E-033
   7.5000000000000032E-003     1.1241510521975961E-033
   7.8750000000000001E-003    -2.0625072221858628E-031
   8.2500000000000004E-003    -5.4566915653719872E-031
   8.6250000000000007E-003     7.7594350030730617E-030
   9.0000000000000011E-003     4.4946786497751542E-030
   9.3750000000000014E-003    -2.3068371101744041E-028
   9.7500000000000017E-003     9.7284512649962083E-028
   1.0125000000000002E-002    -8.5375894078143674E-028
   1.0500000000000002E-002    -1.0512744665153811E-026
   1.0875000000000003E-002     6.9370999031184784E-026
   1.1250000000000003E-002    -2.9366755127412945E-025
   1.1625000000000003E-002     1.4738409120920461E-024
   1.2000000000000000E-002     7.1862793381822023E-024
   1.2375000000000001E-002     2.6415941653855831E-023
   1.2750000000000001E-002     1.0015700506026107E-022
   1.3125000000000001E-002     3.7897828506840463E-022
   1.3500000000000002E-002     1.4064968946620290E-021
   1.3875000000000002E-002     5.1282527524911007E-021
   1.4250000000000002E-002     1.8355183126455261E-020
   1.4625000000000003E-002     6.4509062595285388E-020
   1.5000000000000003E-002     2.2259500974138853E-019
   1.5375000000000003E-002     7.5411213805369138E-019
   1.5750000000000004E-002     2.5082874001318579E-018
   1.6125000000000000E-002     8.1908438651560531E-018
   1.6500000000000001E-002     2.6259194498480370E-017
   1.6875000000000001E-002     8.2647899614707619E-017
   1.7250000000000001E-002     2.5536750418489148E-016
   1.7625000000000002E-002     7.7459702007566354E-016
   1.8000000000000002E-002     2.3064820597115151E-015
   1.8375000000000002E-002     6.7418362159594503E-015
   1.8750000000000003E-002     1.9344129758438006E-014
   1.9125000000000003E-002     5.4481366940443727E-014
   1.9500000000000003E-002     1.5061427143973429E-013
   1.9875000000000004E-002     4.0868228352601541E-013
   2.0250000000000004E-002     1.0884142956730504E-012
   2.0625000000000004E-002     2.8449590333093688E-012
   2.1000000000000005E-002     7.2981496162363208E-012
   2.1375000000000005E-002     1.8373358712488101E-011
   2.1750000000000005E-002     4.5392461966057080E-011
   2.2125000000000006E-002     1.1004646526323019E-010
   2.2499999999999999E-002     2.6178702252695229E-010
   2.2875000000000000E-002     6.1104725717278463E-010
   2.3250000000000000E-002     1.3993517658607108E-009
   2.3625000000000000E-002     3.1440220679383954E-009
   2.4000000000000000E-002     6.9297128654890597E-009
   2.4375000000000001E-002     1.4982640402630256E-008
   2.4750000000000001E-002     3.1773948177335282E-008
   2.5125000000000001E-002     6.6088308594720396E-008
   2.5500000000000002E-002     1.3480614308939836E-007
   2.5875000000000002E-002     2.6964264300948669E-007
   2.6250000000000002E-002     5.2881603710072160E-007
   2.6625000000000003E-002     1.0167431010508617E-006
   2.7000000000000003E-002     1.9162615614352805E-006
   2.7375000000000003E-002     3.5396789937825472E-006
   2.7750000000000004E-002     6.4073593971386557E-006
   2.8125000000000004E-002     1.1363642464647532E-005
   2.8500000000000004E-002     1.9742036293124066E-005
   2.8875000000000005E-002     3.3590285373283647E-005
   2.9250000000000005E-002     5.5958596421247021E-005
   2.9625000000000005E-002     9.1250364576141786E-005
   3.0000000000000006E-002     1.4560463963372378E-004
   3.0375000000000006E-002     2.2726414663259319E-004
   3.0750000000000000E-002     3.4683170061549452E-004
   3.1125000000000000E-002     5.1727811227072703E-004
   3.1500000000000000E-002     7.5352346171893476E-004
   3.1875000000000001E-002     1.0713836898168564E-003
   3.2250000000000001E-002     1.4855974721651763E-003
   3.2625000000000001E-002     2.0070260012550866E-003
   3.3000000000000002E-002     2.6384595730088219E-003
   3.3375000000000002E-002     3.3700140938498022E-003
   3.3750000000000002E-002     4.1737942324841159E-003
   3.4125000000000003E-002     4.9992480976969395E-003
   3.4500000000000003E-002     5.7702265421189138E-003
   3.4875000000000003E-002     6.3852162475281681E-003
   3.5250000000000004E-002     6.7213037093325403E-003
   3.5625000000000004E-002     6.6457545374139738E-003
   3.6000000000000004E-002     6.0307466868248548E-003
   3.6375000000000005E-002     4.7750210816006108E-003
   3.6750000000000005E-002     2.8298979901779089E-003
   3.7125000000000005E-002     2.1824275162783647E-004
   3.7500000000000006E-002    -2.9445399794861206E-003
   3.7875000000000006E-002    -6.4475102464783213E-003
   3.8250000000000006E-002    -9.9916296872373453E-003
   3.8625000000000007E-002    -1.3223005099340907E-002
   3.9000000000000000E-002    -1.5776381185636155E-002
   3.9375000000000000E-002    -1.7339048955230030E-002
   3.9750000000000001E-002    -1.7718404727990383E-002
   4.0125000000000001E-002    -1.6899081517944607E-002
   4.0500000000000001E-002    -1.5091200630293924E-002
   4.0875000000000002E-002    -1.2731227919223096E-002
   4.1250000000000002E-002    -1.0461470472936022E-002
   4.1625000000000002E-002    -9.0494503505759872E-003
   4.2000000000000003E-002    -9.2825019117865216E-003
   4.2375000000000003E-002    -1.1831975756156975E-002
   4.2750000000000003E-002    -1.7121563165982914E-002
   4.3125000000000004E-002    -2.5207631070208073E-002
   4.3500000000000004E-002    -3.5697531711321846E-002
   4.3875000000000004E-002    -4.7743006559051997E-002
   4.4250000000000005E-002    -6.0078787014626447E-002
   4.4625000000000005E-002    -7.1162461350631173E-002
   4.5000000000000005E-002    -7.9283831977015801E-002
   4.5375000000000006E-002    -8.2843263574929632E-002
   4.5750000000000006E-002    -8.0464731583293092E-002
   4.6125000000000006E-002    -7.1227713029322529E-002
   4.6500000000000007E-002    -5.4769407137378143E-002
   4.6875000000000007E-002    -3.1322153925915509E-002
   4.7250000000000000E-002    -1.7396092238789775E-003
   4.7625000000000001E-002     3.2604699218764084E-002
   4.8000000000000001E-002     6.9918855848432895E-002
   4.8375000000000001E-002    0.10816236030723371     
   4.8750000000000002E-002    0.14516694284914550     
   4.9125000000000002E-002    0.17883442714562237     
   4.9500000000000002E-002    0.20716960570826568     
   4.9875000000000003E-002    0.22844700798669926     
   5.0250000000000003E-002    0.24124400787992728     
   5.0625000000000003E-002    0.24447319682531332     
   5.1000000000000004E-002    0.23746031122344924     
   5.1375000000000004E-002    0.21993305064843582     
   5.1750000000000004E-002    0.19215646182551349     
   5.2125000000000005E-002    0.15488162065627234     
   5.2500000000000005E-002    0.10947384944218541     
   5.2875000000000005E-002     5.7856045450853627E-002
   5.3250000000000006E-002     2.5048226356766115E-003
   5.3625000000000006E-002    -5.3654603483245973E-002
   5.4000000000000006E-002   -0.10746155390396980     
   5.4375000000000007E-002   -0.15571408564391453     
   5.4750000000000007E-002   -0.19550522432817571     
   5.5125000000000007E-002   -0.22445116655221725     
   5.5500000000000008E-002   -0.24105757479631029     
   5.5875000000000008E-002   -0.24479227713050294     
   5.6250000000000008E-002   -0.23624804384210762     
   5.6625000000000009E-002   -0.21703549481943613     
   5.7000000000000009E-002   -0.18958163248337789     
   5.7375000000000009E-002   -0.15689810906797774     
   5.7750000000000010E-002   -0.12207836740442518     
   5.8125000000000010E-002    -8.8066841256829939E-002
   5.8500000000000010E-002    -5.7153713188275779E-002
   5.8875000000000011E-002    -3.0924732017776770E-002
   5.9250000000000011E-002    -9.9829358512971162E-003
   5.9624999999999997E-002     5.8669387404466375E-003
   5.9999999999999998E-002     1.7512950136581999E-002
   6.0374999999999998E-002     2.6205085476663413E-002
   6.0749999999999998E-002     3.3252848925550374E-002
   6.1124999999999999E-002     3.9735105679719024E-002
   6.1499999999999999E-002     4.6190732247270681E-002
   6.1874999999999999E-002     5.2590075843643544E-002
   6.2250000000000000E-002     5.8242603878318450E-002
   6.2625000000000000E-002     6.2028194602374978E-002
   6.3000000000000000E-002     6.2538015396317384E-002
   6.3375000000000001E-002     5.8460170475340009E-002
   6.3750000000000001E-002     4.8843993356993541E-002
   6.4125000000000001E-002     3.3354463795513468E-002
   6.4500000000000002E-002     1.2504097317679959E-002
   6.4875000000000002E-002    -1.2322337512062815E-002
   6.5250000000000002E-002    -3.8937925539730786E-002
   6.5625000000000003E-002    -6.4551676079562637E-002
   6.6000000000000003E-002    -8.6048786002533795E-002
   6.6375000000000003E-002   -0.10048341147930206     
   6.6750000000000004E-002   -0.10539286158156067     
   6.7125000000000004E-002    -9.9251925447957953E-002
   6.7500000000000004E-002    -8.1831408482278073E-002
   6.7875000000000005E-002    -5.4245257256502866E-002
   6.8250000000000005E-002    -1.9078912630171814E-002
   6.8625000000000005E-002     1.9950038823989189E-002
   6.9000000000000006E-002     5.8317381363545182E-002
   6.9375000000000006E-002     9.1330482539178137E-002
   6.9750000000000006E-002    0.11472661969949693     
   7.0125000000000007E-002    0.12536287004077401     
   7.0500000000000007E-002    0.12172152568154362     
   7.0875000000000007E-002    0.10417734709651907     
   7.1250000000000008E-002     7.5133706749522133E-002
   7.1625000000000008E-002     3.8676016726700346E-002
   7.2000000000000008E-002     7.2083857224307293E-005
   7.2375000000000009E-002    -3.4979133234778900E-002
   7.2750000000000009E-002    -6.1115183253647676E-002
   7.3125000000000009E-002    -7.4160088085077763E-002
   7.3500000000000010E-002    -7.1626149668466588E-002
   7.3875000000000010E-002    -5.3137462432798696E-002
   7.4250000000000010E-002    -2.0411816480094928E-002
   7.4625000000000011E-002     2.3075309614389198E-002
   7.5000000000000011E-002     7.2480300812825790E-002
   7.5375000000000011E-002    0.12248745108606723     
   7.5750000000000012E-002    0.16785024278441857     
   7.6124999999999998E-002    0.20413926509905772     
   7.6499999999999999E-002    0.22815418458542924     
   7.6874999999999999E-002    0.23822293769810077     
   7.7249999999999999E-002    0.23407578357876835     
   7.7625000000000000E-002    0.21672925130324006     
   7.8000000000000000E-002    0.18806060194422655     
   7.8375000000000000E-002    0.15036145998394604     
   7.8750000000000001E-002    0.10606666322079678     
   7.9125000000000001E-002     5.7325135814642478E-002
   7.9500000000000001E-002     6.0570004471757338E-003
   7.9875000000000002E-002    -4.6167649749288595E-002
   8.0250000000000002E-002    -9.7801590610516353E-002
   8.0625000000000002E-002   -0.14730411847353375     
   8.1000000000000003E-002   -0.19286748534977932     
   8.1375000000000003E-002   -0.23235141984780605     
   8.1750000000000003E-002   -0.26357815199786550     
   8.2125000000000004E-002   -0.28432819634069706     
   8.2500000000000004E-002   -0.29299209428332690     
   8.2875000000000004E-002   -0.28883888902451155     
   8.3250000000000005E-002   -0.27237326516202087     
   8.3625000000000005E-002   -0.24551155649686818     
   8.4000000000000005E-002   -0.21146426956010492     
   8.4375000000000006E-002   -0.17439176566213849     
   8.4750000000000006E-002   -0.13871702914267509     
   8.5125000000000006E-002   -0.10850670665951744     
   8.5500000000000007E-002    -8.6622179059571175E-002
   8.5875000000000007E-002    -7.4279862922000145E-002
   8.6250000000000007E-002    -7.0613356692346307E-002
   8.6625000000000008E-002    -7.2903996359091311E-002
   8.7000000000000008E-002    -7.6794491057223122E-002
   8.7375000000000008E-002    -7.7213705084142631E-002
   8.7750000000000009E-002    -6.9054811707124769E-002
   8.8125000000000009E-002    -4.8093885989187068E-002
   8.8500000000000009E-002    -1.1792523576554872E-002
   8.8875000000000010E-002     4.0427841857892458E-002
   8.9250000000000010E-002    0.10688532023738838     
   8.9625000000000010E-002    0.18396159956023586     
   9.0000000000000011E-002    0.26658438945171836     
   9.0375000000000011E-002    0.34888224970872039     
   9.0750000000000011E-002    0.42477988884057771     
   9.1125000000000012E-002    0.48882453751742416     
   9.1500000000000012E-002    0.53657048417824060     
   9.1875000000000012E-002    0.56487239068311601     
   9.2250000000000013E-002    0.57207482049467728     
   9.2624999999999999E-002    0.55778610836797837     
   9.2999999999999999E-002    0.52296429690826751     
   9.3375000000000000E-002    0.46926708613710100     
   9.3750000000000000E-002    0.39914678571663964     
   9.4125000000000000E-002    0.31529845045354182     
   9.4500000000000001E-002    0.22044975069723427     
   9.4875000000000001E-002    0.11746337505370136     
   9.5250000000000001E-002     8.7008871317805422E-003
   9.5625000000000002E-002   -0.10360433879859901     
   9.6000000000000002E-002   -0.21745060113143619     
   9.6375000000000002E-002   -0.33102164598324380     
   9.6750000000000003E-002   -0.44244212700746877     
   9.7125000000000003E-002   -0.54951732552557619     
   9.7500000000000003E-002   -0.64959961958315460     
   9.7875000000000004E-002   -0.73920733337650191     
   9.8250000000000004E-002   -0.81425529128545215     
   9.8625000000000004E-002   -0.86974893233601791     
   9.9000000000000005E-002   -0.90049765010492178     
   9.9375000000000005E-002   -0.90128903053264575     
   9.9750000000000005E-002   -0.86753670738225364     
  0.10012500000000001        -0.79631141881222067     
  0.10050000000000001        -0.68662860466396103     
  0.10087500000000001        -0.54023391820083511     
  0.10125000000000001        -0.36206034366825457     
  0.10162500000000001        -0.15989365820466589     
  0.10200000000000001          5.5533321063452913E-002
  0.10237500000000001         0.27161114045787565     
  0.10275000000000001         0.47462919279899851     
  0.10312500000000001         0.65117473043016894     
  0.10350000000000001         0.78908441892032233     
  0.10387500000000001         0.87928801682228863     
  0.10425000000000001         0.91611506477486904     
  0.10462500000000001         0.89834257881605106     
  0.10500000000000001         0.82937724061103579     
  0.10537500000000001         0.71665020513317224     
  0.10575000000000001         0.57114214648635808     
  0.10612500000000001         0.40604891184923969     
  0.10650000000000001         0.23553520686846297     
  0.10687500000000001          7.3211063089126338E-002
  0.10725000000000001         -6.8990295795644752E-002
  0.10762500000000001        -0.18178604502893869     
  0.10800000000000001        -0.25944100224850741     
  0.10837500000000001        -0.29934903853545031     
  0.10875000000000001        -0.30243601349849009     
  0.10912500000000000        -0.27246098601100527     
  0.10950000000000000        -0.21521781212311303     
  0.10987500000000000        -0.13815195117410989     
  0.11025000000000000         -4.9586826368692064E-002
  0.11062500000000001          4.2024198180634589E-002
  0.11100000000000000         0.12846759133332325     
  0.11137500000000002         0.20213909714909267     
  0.11175000000000000         0.25682745579934707     
  0.11212500000000002         0.28784422740025450     
  0.11250000000000000         0.29243327496710597     
  0.11287500000000002         0.27034773076837149     
  0.11325000000000000         0.22354682057462671     
  0.11362500000000002         0.15649216521502807     
  0.11400000000000000          7.5525637085354147E-002
  0.11437500000000002         -1.1794913047091196E-002
  0.11475000000000000         -9.7356763705166216E-002
  0.11512500000000002        -0.17361194703494398     
  0.11550000000000001        -0.23457359990998983     
  0.11587500000000002        -0.27630558946657624     
  0.11625000000000001        -0.29742204089430913     
  0.11662500000000002        -0.29921942002068780     
  0.11700000000000001        -0.28504358492369597     
  0.11737499999999999        -0.25985336665648073     
  0.11775000000000001        -0.22922343605598805     
  0.11812499999999999        -0.19839394494237741     
  0.11850000000000001        -0.17149597298004360     
  0.11887499999999999        -0.15122338165682880     
  0.11925000000000001        -0.13824329198924107     
  0.11962500000000000        -0.13162837693777388     
  0.12000000000000001        -0.12906734512331261     
  0.12037500000000000        -0.12763738535259694     
  0.12075000000000001        -0.12424177627202987     
  0.12112500000000000        -0.11646010561306031     
  0.12150000000000001        -0.10280119510935552     
  0.12187500000000000         -8.2865297238215341E-002
  0.12225000000000001         -5.7705833480785174E-002
  0.12262500000000000         -2.9057191418748546E-002
  0.12300000000000001          8.3858644838784736E-004
  0.12337500000000000          2.9542667417398971E-002
  0.12375000000000001          5.4961577723314933E-002
  0.12412500000000000          7.5897998953449813E-002
  0.12450000000000001          9.1689055774293385E-002
  0.12487500000000000         0.10272483109132617     
  0.12525000000000003         0.10989228289074644     
  0.12562499999999999         0.11432877017887216     
  0.12600000000000000         0.11733342555474524     
  0.12637500000000002         0.11970193057507378     
  0.12675000000000003         0.12154701558633851     
  0.12712499999999999         0.12219070932348877     
  0.12750000000000000         0.12013849363853235     
  0.12787500000000002         0.11335722945454835     
  0.12825000000000003          9.9563813620754726E-002
  0.12862499999999999          7.6917834901348112E-002
  0.12900000000000000          4.4589684976919924E-002
  0.12937500000000002          3.8602689437841411E-003
  0.12975000000000003         -4.1740968469912682E-002
  0.13012499999999999         -8.5996385522703805E-002
  0.13050000000000000        -0.12025093040049209     
  0.13087500000000002        -0.13429425166272241     
  0.13125000000000003        -0.11810043869860359     
  0.13162499999999999         -6.3857448568355762E-002
  0.13200000000000001          3.1668840677563731E-002
  0.13237500000000002         0.16496927828873445     
  0.13275000000000003         0.32463040617678041     
  0.13312499999999999         0.49101699888544770     
  0.13350000000000001         0.63800224004237904     
  0.13387500000000002         0.73619759955758124     
  0.13424999999999998         0.75756347051160422     
  0.13462499999999999         0.68082665318836422     
  0.13500000000000001         0.49604482526476923     
  0.13537500000000002         0.20930750872083365     
  0.13574999999999998        -0.15670376679589609     
  0.13612500000000000        -0.56323184861513076     
  0.13650000000000001        -0.95991527783660580     
  0.13687500000000002         -1.2914787271681183     
  0.13724999999999998         -1.5054300974842920     
  0.13762500000000000         -1.5606378609353566     
  0.13800000000000001         -1.4343248489368665     
  0.13837500000000003         -1.1263795511193300     
  0.13874999999999998        -0.66087137816642061     
  0.13912500000000000         -8.3468686008583204E-002
  0.13950000000000001         0.54385600674552137     
  0.13987500000000003          1.1506255844186888     
  0.14024999999999999          1.6670947124944433     
  0.14062500000000000          2.0328167641163102     
  0.14100000000000001          2.2038885061725173     
  0.14137500000000003          2.1580157590717737     
  0.14174999999999999          1.8963498125487948     
  0.14212500000000000          1.4428176784557756     
  0.14250000000000002         0.84042142789684782     
  0.14287500000000003         0.14578141272324752     
  0.14324999999999999        -0.57726951145457639     
  0.14362500000000000         -1.2646182654197871     
  0.14400000000000002         -1.8579483204152785     
  0.14437500000000003         -2.3100111733188546     
  0.14474999999999999         -2.5878993527443246     
  0.14512500000000000         -2.6750057853640596     
  0.14550000000000002         -2.5709133897982683     
  0.14587500000000003         -2.2900527144338390     
  0.14624999999999999         -1.8593970983142798     
  0.14662500000000001         -1.3148636844170640     
  0.14700000000000002        -0.69787966444003124     
  0.14737500000000003         -5.2205871609002447E-002
  0.14774999999999999         0.58001748225313610     
  0.14812500000000001          1.1604169046412962     
  0.14850000000000002          1.6566607933992286     
  0.14887500000000004          2.0441810852802096     
  0.14924999999999999          2.3063855221395326     
  0.14962500000000001          2.4354464787931338     
  0.15000000000000002          2.4314533013868620     
  0.15037499999999998          2.3019916503783961     
  0.15075000000000000          2.0607614303025144     
  0.15112500000000001          1.7262012200651231     
  0.15150000000000002          1.3205270570689709     
  0.15187499999999998         0.86767830905478860     
  0.15225000000000000         0.39205771796528888     
  0.15262500000000001         -8.2208284687149136E-002
  0.15300000000000002        -0.53310905310773882     
  0.15337499999999998        -0.94122219630590465     
  0.15375000000000000         -1.2901531541759037     
  0.15412500000000001         -1.5677428272001031     
  0.15450000000000003         -1.7654717155740591     
  0.15487499999999998         -1.8790494447941670     
  0.15525000000000000         -1.9080549644117970     
  0.15562500000000001         -1.8557403116913243     
  0.15600000000000003         -1.7284171531161192     
  0.15637499999999999         -1.5350993260514165     
  0.15675000000000000         -1.2869256532499094     
  0.15712500000000001        -0.99624757846868928     
  0.15750000000000003        -0.67654260788083520     
  0.15787499999999999        -0.34131262859340222     
  0.15825000000000000         -3.7851557283892917E-003
  0.15862500000000002         0.32340576378106178     
  0.15900000000000003         0.62878110204110493     
  0.15937499999999999         0.90253566298109678     
  0.15975000000000000          1.1363371066127028     
  0.16012500000000002          1.3236888353126717     
  0.16050000000000003          1.4603317217316247     
  0.16087499999999999          1.5435388469008779     
  0.16125000000000000          1.5727902704188079     
  0.16162500000000002          1.5491990274288616     
  0.16200000000000003          1.4754862565451994     
  0.16237499999999999          1.3557285001883768     
  0.16275000000000001          1.1953937523101645     
  0.16312500000000002          1.0008393970989886     
  0.16350000000000003         0.77904338457169586     
  0.16387499999999999         0.53786940352638180     
  0.16425000000000001         0.28512394859092804     
  0.16462500000000002          2.8803083929447693E-002
  0.16500000000000004        -0.22351938167024099     
  0.16537499999999999        -0.46440565099969949     
  0.16575000000000001        -0.68732318266035985     
  0.16612500000000002        -0.88649900357632194     
  0.16650000000000004         -1.0570050733839389     
  0.16687500000000000         -1.1950234412128009     
  0.16725000000000001         -1.2977873941170650     
  0.16762500000000002         -1.3636522525484609     
  0.16799999999999998         -1.3921356472328852     
  0.16837500000000000         -1.3837704517242324     
  0.16875000000000001         -1.3399579972677995     
  0.16912500000000003         -1.2631976374988310     
  0.16949999999999998         -1.1566854586751147     
  0.16987500000000000         -1.0240380232443600     
  0.17025000000000001        -0.86948697283691612     
  0.17062500000000003        -0.69746597954806533     
  0.17099999999999999        -0.51294396706360090     
  0.17137500000000000        -0.32029206323510523     
  0.17175000000000001        -0.12447243364906449     
  0.17212500000000003          6.9864983696485625E-002
  0.17249999999999999         0.25865353345103254     
  0.17287500000000000         0.43732420907649150     
  0.17325000000000002         0.60268687315188840     
  0.17362500000000003         0.75123572585965037     
  0.17399999999999999         0.88014709947674874     
  0.17437500000000000         0.98724571451398946     
  0.17475000000000002          1.0707388054243636     
  0.17512500000000003          1.1295735211757219     
  0.17549999999999999          1.1629759227106322     
  0.17587500000000000          1.1709201180410358     
  0.17625000000000002          1.1540488050891318     
  0.17662500000000003          1.1132768638075548     
  0.17699999999999999          1.0504636538527130     
  0.17737500000000000         0.96735105671197585     
  0.17775000000000002         0.86646344360123773     
  0.17812500000000003         0.75074498007520285     
  0.17849999999999999         0.62295724308626532     
  0.17887500000000001         0.48611938293416757     
  0.17925000000000002         0.34352769357709417     
  0.17962500000000003         0.19802340371198907     
  0.17999999999999999          5.2880734596964879E-002
  0.18037500000000001         -8.9344148784389968E-002
  0.18075000000000002        -0.22599175236881719     
  0.18112500000000004        -0.35462171565781153     
  0.18149999999999999        -0.47323599031682151     
  0.18187500000000001        -0.57990119174688259     
  0.18225000000000002        -0.67338231942927251     
  0.18262500000000004        -0.75229421094742266     
  0.18300000000000000        -0.81567650112693668     
  0.18337500000000001        -0.86278749083404149     
  0.18375000000000002        -0.89349064804488521     
  0.18412499999999998        -0.90737335830024923     
  0.18450000000000000        -0.90459041964210618     
  0.18487500000000001        -0.88565108558459782     
  0.18525000000000003        -0.85115120671968114     
  0.18562499999999998        -0.80223185287582655     
  0.18600000000000000        -0.74006799105833410     
  0.18637500000000001        -0.66605873608955368     
  0.18675000000000003        -0.58199566272768111     
  0.18712499999999999        -0.48987629586993942     
  0.18750000000000000        -0.39147644054797270     
  0.18787500000000001        -0.28895563673487046     
  0.18825000000000003        -0.18432021808465235     
  0.18862499999999999         -7.9617889109030837E-002
  0.18900000000000000          2.3098639278085357E-002