  -1.4999999999999999E-002     0.0000000000000000     
  -1.4624999999999999E-002     0.0000000000000000     
  -1.4249999999999999E-002     0.0000000000000000     
  -1.3874999999999998E-002     0.0000000000000000     
  -1.3500000000000000E-002     0.0000000000000000     
  -1.3125000000000000E-002     0.0000000000000000     
  -1.2749999999999999E-002     0.0000000000000000     
  -1.2374999999999999E-002     0.0000000000000000     
  -1.2000000000000000E-002     0.0000000000000000     
  -1.1625000000000000E-002     0.0000000000000000     
  -1.1250000000000000E-002     0.0000000000000000     
  -1.0874999999999999E-002     0.0000000000000000     
  -1.0499999999999999E-002     0.0000000000000000     
  -1.0124999999999999E-002     0.0000000000000000     
  -9.7499999999999983E-003     0.0000000000000000     
  -9.3749999999999979E-003     0.0000000000000000     
  -8.9999999999999993E-003     0.0000000000000000     
  -8.6249999999999990E-003     0.0000000000000000     
  -8.2500000000000004E-003     0.0000000000000000     
  -7.8750000000000001E-003     0.0000000000000000     
  -7.4999999999999989E-003     0.0000000000000000     
  -7.1249999999999994E-003     0.0000000000000000     
  -6.7499999999999991E-003     0.0000000000000000     
  -6.3749999999999987E-003     0.0000000000000000     
  -5.9999999999999984E-003     0.0000000000000000     
  -5.6249999999999998E-003     0.0000000000000000     
  -5.2499999999999995E-003     0.0000000000000000     
  -4.8749999999999991E-003     0.0000000000000000     
  -4.4999999999999988E-003     0.0000000000000000     
  -4.1249999999999985E-003     0.0000000000000000     
  -3.7499999999999981E-003     0.0000000000000000     
  -3.3749999999999995E-003     0.0000000000000000     
  -2.9999999999999992E-003     0.0000000000000000     
  -2.6249999999999989E-003     0.0000000000000000     
  -2.2499999999999985E-003     0.0000000000000000     
  -1.8749999999999982E-003     0.0000000000000000     
  -1.4999999999999996E-003     0.0000000000000000     
  -1.1249999999999993E-003     0.0000000000000000     
  -7.4999999999999893E-004     0.0000000000000000     
  -3.7499999999999860E-004     0.0000000000000000     
   1.7347234759768071E-018     0.0000000000000000     
   3.7500000000000207E-004     0.0000000000000000     
   7.5000000000000067E-004     0.0000000000000000     
   1.1250000000000010E-003     0.0000000000000000     
   1.5000000000000013E-003     0.0000000000000000     
   1.8750000000000017E-003     0.0000000000000000     
   2.2500000000000020E-003     0.0000000000000000     
   2.6250000000000023E-003     0.0000000000000000     
   3.0000000000000027E-003     0.0000000000000000     
   3.3750000000000030E-003     0.0000000000000000     
   3.7499999999999999E-003     0.0000000000000000     
   4.1250000000000002E-003     0.0000000000000000     
   4.5000000000000005E-003     0.0000000000000000     
   4.8750000000000009E-003     0.0000000000000000     
   5.2500000000000012E-003     0.0000000000000000     
   5.6250000000000015E-003     0.0000000000000000     
   6.0000000000000019E-003     0.0000000000000000     
   6.3750000000000022E-003     0.0000000000000000     
   6.7500000000000025E-003     0.0000000000000000     
   7.1250000000000029E-003     0.0000000000000000     
   7.5000000000000032E-003     0.0000000000000000     
   7.8750000000000001E-003     0.0000000000000000     
   8.2500000000000004E-003     0.0000000000000000     
   8.6250000000000007E-003     0.0000000000000000     
   9.0000000000000011E-003     0.0000000000000000     
   9.3750000000000014E-003     0.0000000000000000     
   9.7500000000000017E-003     0.0000000000000000     
   1.0125000000000002E-002     0.0000000000000000     
   1.0500000000000002E-002     0.0000000000000000     
   1.0875000000000003E-002     0.0000000000000000     
   1.1250000000000003E-002     0.0000000000000000     
   1.1625000000000003E-002     0.0000000000000000     
   1.2000000000000000E-002     0.0000000000000000     
   1.2375000000000001E-002     0.0000000000000000     
   1.2750000000000001E-002     0.0000000000000000     
   1.3125000000000001E-002     0.0000000000000000     
   1.3500000000000002E-002     0.0000000000000000     
   1.3875000000000002E-002     0.0000000000000000     
   1.4250000000000002E-002     0.0000000000000000     
   1.4625000000000003E-002     0.0000000000000000     
   1.5000000000000003E-002     0.0000000000000000     
   1.5375000000000003E-002     0.0000000000000000     
   1.5750000000000004E-002     0.0000000000000000     
   1.6125000000000000E-002    -6.2395391016792627E-038
   1.6500000000000001E-002    -1.2392089345119750E-035
   1.6875000000000001E-002    -4.4448589850717018E-034
   1.7250000000000001E-002    -4.7883072967219257E-033
   1.7625000000000002E-002     1.7380068386032198E-033
   1.8000000000000002E-002     3.1679513501788384E-031
   1.8375000000000002E-002     3.1882953744764692E-031
   1.8750000000000003E-002    -1.1669933239063247E-029
   1.9125000000000003E-002     2.4053395072429082E-029
   1.9500000000000003E-002     1.9596026772400115E-028
   1.9875000000000004E-002    -1.5760586687405594E-027
   2.0250000000000004E-002     5.9826005862415313E-027
   2.0625000000000004E-002    -1.5816263494157296E-026
   2.1000000000000005E-002     3.1681340952061284E-026
   2.1375000000000005E-002    -6.2392665193348962E-026
   2.1750000000000005E-002     2.4034795089355259E-024
   2.2125000000000006E-002     6.9678234714959939E-024
   2.2499999999999999E-002     2.8680314007503368E-023
   2.2875000000000000E-002     1.0679863692267661E-022
   2.3250000000000000E-002     4.0127109473526112E-022
   2.3625000000000000E-002     1.4731099311258447E-021
   2.4000000000000000E-002     5.3121302615966779E-021
   2.4375000000000001E-002     1.8810128991071687E-020
   2.4750000000000001E-002     6.5393137160568082E-020
   2.5125000000000001E-002     2.2321014684447050E-019
   2.5500000000000002E-002     7.4803193309881308E-019
   2.5875000000000002E-002     2.4612193639023125E-018
   2.6250000000000002E-002     7.9504344693198541E-018
   2.6625000000000003E-002     2.5213838498268297E-017
   2.7000000000000003E-002     7.8501925953982674E-017
   2.7375000000000003E-002     2.3994487965585580E-016
   2.7750000000000004E-002     7.1997920731797593E-016
   2.8125000000000004E-002     2.1207902934766369E-015
   2.8500000000000004E-002     6.1324243241058415E-015
   2.8875000000000005E-002     1.7406610689128512E-014
   2.9250000000000005E-002     4.8498905055433417E-014
   2.9625000000000005E-002     1.3263904042571198E-013
   3.0000000000000006E-002     3.5605907903226872E-013
   3.0375000000000006E-002     9.3814231783270699E-013
   3.0750000000000000E-002     2.4260203517883976E-012
   3.1125000000000000E-002     6.1572802267527447E-012
   3.1500000000000000E-002     1.5336627020136016E-011
   3.1875000000000001E-002     3.7489135149643541E-011
   3.2250000000000001E-002     8.9927165811491095E-011
   3.2625000000000001E-002     2.1167528422205558E-010
   3.3000000000000002E-002     4.8890155797083017E-010
   3.3375000000000002E-002     1.1079495287667877E-009
   3.3750000000000002E-002     2.4634358199367280E-009
   3.4125000000000003E-002     5.3735948779547207E-009
   3.4500000000000003E-002     1.1498784594341913E-008
   3.4875000000000003E-002     2.4136957476372000E-008
   3.5250000000000004E-002     4.9695310951354619E-008
   3.5625000000000004E-002     1.0035072870615283E-007
   3.6000000000000004E-002     1.9872786140875529E-007
   3.6375000000000005E-002     3.8590929088889163E-007
   3.6750000000000005E-002     7.3478278719420228E-007
   3.7125000000000005E-002     1.3715944340694449E-006
   3.7500000000000006E-002     2.5097719873437698E-006
   3.7875000000000006E-002     4.5011988723035744E-006
   3.8250000000000006E-002     7.9110344542580918E-006
   3.8625000000000007E-002     1.3623639480153700E-005
   3.9000000000000000E-002     2.2983059581797429E-005
   3.9375000000000000E-002     3.7975839977100979E-005
   3.9750000000000001E-002     6.1444538179832110E-005
   4.0125000000000001E-002     9.7325440879292459E-005
   4.0500000000000001E-002     1.5087456055161614E-004
   4.0875000000000002E-002     2.2882898029437891E-004
   4.1250000000000002E-002     3.3942682000753430E-004
   4.1625000000000002E-002     4.9221542934161689E-004
   4.2000000000000003E-002     6.9743532326896796E-004
   4.2375000000000003E-002     9.6512137454987548E-004
   4.2750000000000003E-002     1.3034048622785959E-003
   4.3125000000000004E-002     1.7166007673002776E-003
   4.3500000000000004E-002     2.2027678998165663E-003
   4.3875000000000004E-002     2.7508810608663390E-003
   4.4250000000000005E-002     3.3390760650265725E-003
   4.4625000000000005E-002     3.9325610743514592E-003
   4.5000000000000005E-002     4.4846468477386953E-003
   4.5375000000000006E-002     4.9381610488203487E-003
   4.5750000000000006E-002     5.2312774529600821E-003
   4.6125000000000006E-002     5.3046793078963973E-003
   4.6500000000000007E-002     5.1107617396111155E-003
   4.6875000000000007E-002     4.6247800024410979E-003
   4.7250000000000000E-002     3.8543600854764656E-003
   4.7625000000000001E-002     2.8444916555287790E-003
   4.8000000000000001E-002     1.6803758171536577E-003
   4.8375000000000001E-002     4.8004626150738555E-004
   4.8750000000000002E-002    -6.1874327259361830E-004
   4.9125000000000002E-002    -1.4807233819555889E-003
   4.9500000000000002E-002    -1.9979262788697668E-003
   4.9875000000000003E-002    -2.1156635606036636E-003
   5.0250000000000003E-002    -1.8560742874445435E-003
   5.0625000000000003E-002    -1.3282730679173450E-003
   5.1000000000000004E-002    -7.3127625543095319E-004
   5.1375000000000004E-002    -3.3136392617214938E-004
   5.1750000000000004E-002    -4.3332230612782468E-004
   5.2125000000000005E-002    -1.3359840684454979E-003
   5.2500000000000005E-002    -3.2775713508029587E-003
   5.2875000000000005E-002    -6.3943647671969011E-003
   5.3250000000000006E-002    -1.0674538647145154E-002
   5.3625000000000006E-002    -1.5950416565379835E-002
   5.4000000000000006E-002    -2.1890612406094072E-002
   5.4375000000000007E-002    -2.8038671060556720E-002
   5.4750000000000007E-002    -3.3854410659922216E-002
   5.5125000000000007E-002    -3.8772193768050425E-002
   5.5500000000000008E-002    -4.2279463013232918E-002
   5.5875000000000008E-002    -4.3963053177594164E-002
   5.6250000000000008E-002    -4.3562735084480511E-002
   5.6625000000000009E-002    -4.0995004888189621E-002
   5.7000000000000009E-002    -3.6353476825099401E-002
   5.7375000000000009E-002    -2.9891835770409450E-002
   5.7750000000000010E-002    -2.1984970513628556E-002
   5.8125000000000010E-002    -1.3082838180554550E-002
   5.8500000000000010E-002    -3.6565105034798255E-003
   5.8875000000000011E-002     5.8358186920181160E-003
   5.9250000000000011E-002     1.4994252727909513E-002
   5.9624999999999997E-002     2.3486586603464435E-002
   5.9999999999999998E-002     3.1056308695352544E-002
   6.0374999999999998E-002     3.7525713753713219E-002
   6.0749999999999998E-002     4.2760576766255942E-002
   6.1124999999999999E-002     4.6673232777320453E-002
   6.1499999999999999E-002     4.9192495139795248E-002
   6.1874999999999999E-002     5.0275366330710489E-002
   6.2250000000000000E-002     4.9880540940086537E-002
   6.2625000000000000E-002     4.8007456713642788E-002
   6.3000000000000000E-002     4.4712513007844415E-002
   6.3375000000000001E-002     4.0114417313244902E-002
   6.3750000000000001E-002     3.4457207050750172E-002
   6.4125000000000001E-002     2.8080846569008916E-002
   6.4500000000000002E-002     2.1459990185483446E-002
   6.4875000000000002E-002     1.5162529906916612E-002
   6.5250000000000002E-002     9.8218498122292289E-003
   6.5625000000000003E-002     6.0385121315382657E-003
   6.6000000000000003E-002     4.3453942978721885E-003
   6.6375000000000003E-002     5.0819672895800316E-003
   6.6750000000000004E-002     8.3204792370880423E-003
   6.7125000000000004E-002     1.3833701079618144E-002
   6.7500000000000004E-002     2.1018655291598246E-002
   6.7875000000000005E-002     2.8990784146851890E-002
   6.8250000000000005E-002     3.6599485505222400E-002
   6.8625000000000005E-002     4.2582263062126549E-002
   6.9000000000000006E-002     4.5720802138099009E-002
   6.9375000000000006E-002     4.4980902181532972E-002
   6.9750000000000006E-002     3.9720585882151827E-002
   7.0125000000000007E-002     2.9762871966360821E-002
   7.0500000000000007E-002     1.5491724547420101E-002
   7.0875000000000007E-002    -2.1533818771417267E-003
   7.1250000000000008E-002    -2.1789238878584492E-002
   7.1625000000000008E-002    -4.1690336787628693E-002
   7.2000000000000008E-002    -6.0018037461501528E-002
   7.2375000000000009E-002    -7.5042804953054890E-002
   7.2750000000000009E-002    -8.5315784945837136E-002
   7.3125000000000009E-002    -8.9876145754329784E-002
   7.3500000000000010E-002    -8.8336321914933263E-002
   7.3875000000000010E-002    -8.0910457282520970E-002
   7.4250000000000010E-002    -6.8401247426645967E-002
   7.4625000000000011E-002    -5.2021744909104717E-002
   7.5000000000000011E-002    -3.3306925016679118E-002
   7.5375000000000011E-002    -1.3880616965755849E-002
   7.5750000000000012E-002     4.7152027883148716E-003
   7.6124999999999998E-002     2.1140024934332327E-002
   7.6499999999999999E-002     3.4414545389523182E-002
   7.6874999999999999E-002     4.3912030507731709E-002
   7.7249999999999999E-002     4.9393638035539880E-002
   7.7625000000000000E-002     5.0945753171827660E-002
   7.8000000000000000E-002     4.8912334553947598E-002
   7.8375000000000000E-002     4.3803084946833895E-002
   7.8750000000000001E-002     3.6203388323997929E-002
   7.9125000000000001E-002     2.6730287795619867E-002
   7.9500000000000001E-002     1.5958102823047590E-002
   7.9875000000000002E-002     4.4239002683690853E-003
   8.0250000000000002E-002    -7.4209108648277278E-003
   8.0625000000000002E-002    -1.9165141215545078E-002
   8.1000000000000003E-002    -3.0487884729599339E-002
   8.1375000000000003E-002    -4.1120570214855504E-002
   8.1750000000000003E-002    -5.0867552949366429E-002
   8.2125000000000004E-002    -5.9639555443110212E-002
   8.2500000000000004E-002    -6.7380821596141394E-002
   8.2875000000000004E-002    -7.4152515746104763E-002
   8.3250000000000005E-002    -7.9996643798352168E-002
   8.3625000000000005E-002    -8.4993033221017561E-002
   8.4000000000000005E-002    -8.9127393143995731E-002
   8.4375000000000006E-002    -9.2290466721274139E-002
   8.4750000000000006E-002    -9.4232074588218862E-002
   8.5125000000000006E-002    -9.4519538742794174E-002
   8.5500000000000007E-002    -9.2648113388716924E-002
   8.5875000000000007E-002    -8.7962034496570862E-002
   8.6250000000000007E-002    -7.9863682007345171E-002
   8.6625000000000008E-002    -6.7825727239958444E-002
   8.7000000000000008E-002    -5.1497286648944207E-002
   8.7375000000000008E-002    -3.0816768013573997E-002
   8.7750000000000009E-002    -6.0068622390992005E-003
   8.8125000000000009E-002     2.2357632514053670E-002
   8.8500000000000009E-002     5.3382179034643040E-002
   8.8875000000000010E-002     8.5881072693044902E-002
   8.9250000000000010E-002    0.11843401310259846     
   8.9625000000000010E-002    0.14945602548008835     
   9.0000000000000011E-002    0.17728039280657237     
   9.0375000000000011E-002    0.20022074415510765     
   9.0750000000000011E-002    0.21669256384315738     
   9.1125000000000012E-002    0.22528970924247399     
   9.1500000000000012E-002    0.22487909706188525     
   9.1875000000000012E-002    0.21476978677816716     
   9.2250000000000013E-002    0.19470015166762017     
   9.2624999999999999E-002    0.16506097581643026     
   9.2999999999999999E-002    0.12683357519198762     
   9.3375000000000000E-002     8.1634855305282028E-002
   9.3750000000000000E-002     3.1716194983236329E-002
   9.4125000000000000E-002    -2.0265657331643046E-002
   9.4500000000000001E-002    -7.1284642406750073E-002
   9.4875000000000001E-002   -0.11826276591789017     
   9.5250000000000001E-002   -0.15825461494869980     
   9.5625000000000002E-002   -0.18871478873123076     
   9.6000000000000002E-002   -0.20771766903513234     
   9.6375000000000002E-002   -0.21413285446792851     
   9.6750000000000003E-002   -0.20769825724849178     
   9.7125000000000003E-002   -0.18914087834074439     
   9.7500000000000003E-002   -0.16000035217030828     
   9.7875000000000004E-002   -0.12257875360222353     
   9.8250000000000004E-002    -7.9728923952983755E-002
   9.8625000000000004E-002    -3.4549681750163000E-002
   9.9000000000000005E-002     9.7933688126337903E-003
   9.9375000000000005E-002     5.0410824064103188E-002
   9.9750000000000005E-002     8.4869680912689233E-002
  0.10012500000000001         0.11135903286581783     
  0.10050000000000001         0.12881877111968085     
  0.10087500000000001         0.13690661681747074     
  0.10125000000000001         0.13601379414221271     
  0.10162500000000001         0.12708656022819381     
  0.10200000000000001         0.11150102994554895     
  0.10237500000000001          9.0907656152444338E-002
  0.10275000000000001          6.7020459254215875E-002
  0.10312500000000001          4.1541434492509785E-002
  0.10350000000000001          1.5979402508928445E-002
  0.10387500000000001         -8.3385176591002849E-003
  0.10425000000000001         -3.0380588085018381E-002
  0.10462500000000001         -4.9346073494673945E-002
  0.10500000000000001         -6.4676065687362783E-002
  0.10537500000000001         -7.6100898459859845E-002
  0.10575000000000001         -8.3473236993707872E-002
  0.10612500000000001         -8.6920850759065971E-002
  0.10650000000000001         -8.6691841611794163E-002
  0.10687500000000001         -8.3165083947109808E-002
  0.10725000000000001         -7.6832874817092861E-002
  0.10762500000000001         -6.8207545134369746E-002
  0.10800000000000001         -5.7774718387306578E-002
  0.10837500000000001         -4.5953916907154127E-002
  0.10875000000000001         -3.3087969173136944E-002
  0.10912500000000000         -1.9395434145316026E-002
  0.10950000000000000         -5.0682605105383527E-003
  0.10987500000000000          9.6991425891165429E-003
  0.11025000000000000          2.4620202442235936E-002
  0.11062500000000001          3.9210619805970112E-002
  0.11100000000000000          5.2791906322957022E-002
  0.11137500000000002          6.4433919488950678E-002
  0.11175000000000000          7.3076067972888320E-002
  0.11212500000000002          7.7593574715846686E-002
  0.11250000000000000          7.7017314685928373E-002
  0.11287500000000002          7.0681927205659939E-002
  0.11325000000000000          5.8414781333780863E-002
  0.11362500000000002          4.0669665828648449E-002
  0.11400000000000000          1.8508303654917669E-002
  0.11437500000000002         -6.3138005175088774E-003
  0.11475000000000000         -3.1641710992165992E-002
  0.11512500000000002         -5.5022642869713756E-002
  0.11550000000000001         -7.4008886693646733E-002
  0.11587500000000002         -8.6507698964024909E-002
  0.11625000000000001         -9.0955406695383600E-002
  0.11662500000000002         -8.6625354350682443E-002
  0.11700000000000001         -7.3749438445043197E-002
  0.11737499999999999         -5.3514495133772738E-002
  0.11775000000000001         -2.8037250289946782E-002
  0.11812499999999999         -9.2748081992846676E-005
  0.11850000000000001          2.7114122453635765E-002
  0.11887499999999999          5.0365092261915968E-002
  0.11925000000000001          6.6840213291054967E-002
  0.11962500000000000          7.4443520157965348E-002
  0.12000000000000001          7.2148906415813646E-002
  0.12037500000000000          6.0171870487795653E-002
  0.12075000000000001          3.9925054284466119E-002
  0.12112500000000000          1.3998133841553191E-002
  0.12150000000000001         -1.4282055087739234E-002
  0.12187500000000000         -4.1223979775081299E-002
  0.12225000000000001         -6.3196471324716522E-002
  0.12262500000000000         -7.7226929552593263E-002
  0.12300000000000001         -8.1272945515134420E-002
  0.12337500000000000         -7.4568322303291412E-002
  0.12375000000000001         -5.7656075843455334E-002
  0.12412500000000000         -3.2352856613835385E-002
  0.12450000000000001         -1.4210937017412328E-003
  0.12487500000000000          3.1740473632241487E-002
  0.12525000000000003          6.3540216001142333E-002
  0.12562499999999999          9.0671739615427932E-002
  0.12600000000000000         0.11040546936935705     
  0.12637500000000002         0.12094965332532040     
  0.12675000000000003         0.12151097196074054     
  0.12712499999999999         0.11232656800619853     
  0.12750000000000000          9.4573236920723003E-002
  0.12787500000000002          7.0091446724875078E-002
  0.12825000000000003          4.1173837527875054E-002
  0.12862499999999999          1.0228197781725720E-002
  0.12900000000000000         -2.0391824539332807E-002
  0.12937500000000002         -4.8688975067372547E-002
  0.12975000000000003         -7.3029400728623337E-002
  0.13012499999999999         -9.2221870859417049E-002
  0.13050000000000000        -0.10553119464285790     
  0.13087500000000002        -0.11247848458122595     
  0.13125000000000003        -0.11289345970711587     
  0.13162499999999999        -0.10676996740105363     
  0.13200000000000001         -9.4249963015675148E-002
  0.13237500000000002         -7.5721067243384066E-002
  0.13275000000000003         -5.1840784608093410E-002
  0.13312499999999999         -2.3612353639937619E-002
  0.13350000000000001          7.4396271609711156E-003
  0.13387500000000002          3.9354804618349150E-002
  0.13424999999999998          6.9723378826312674E-002
  0.13462499999999999          9.5897252815946382E-002
  0.13500000000000001         0.11517430306231877     
  0.13537500000000002         0.12521050830498603     
  0.13574999999999998         0.12426368227090115     
  0.13612500000000000         0.11152261186781148     
  0.13650000000000001          8.7380914126301501E-002
  0.13687500000000002          5.3357159701567125E-002
  0.13724999999999998          1.2196497904594886E-002
  0.13762500000000000         -3.2517701707666255E-002
  0.13800000000000001         -7.6600134972865608E-002
  0.13837500000000003        -0.11580175801114609     
  0.13874999999999998        -0.14622536451990073     
  0.13912500000000000        -0.16473656389278324     
  0.13950000000000001        -0.16938122587046195     
  0.13987500000000003        -0.15949901424278506     
  0.14024999999999999        -0.13585354109192438     
  0.14062500000000000        -0.10053003339066807     
  0.14100000000000001         -5.6694658052100680E-002
  0.14137500000000003         -8.1900675152609126E-003
  0.14174999999999999          4.0716008732869943E-002
  0.14212500000000000          8.5952076735339139E-002
  0.14250000000000002         0.12390581230471434     
  0.14287500000000003         0.15184413775150643     
  0.14324999999999999         0.16811569148693212     
  0.14362500000000000         0.17226849096698377     
  0.14400000000000002         0.16496193557046473     
  0.14437500000000003         0.14788716945076313     
  0.14474999999999999         0.12344958887654134     
  0.14512500000000000          9.4382408976585841E-002
  0.14550000000000002          6.3594419679578906E-002
  0.14587500000000003          3.3638489756058258E-002
  0.14624999999999999          6.6849708364092111E-003
  0.14662500000000001         -1.5716960412986855E-002
  0.14700000000000002         -3.2677285982285337E-002
  0.14737500000000003         -4.3877779620423482E-002
  0.14774999999999999         -4.9583822415819462E-002
  0.14812500000000001         -5.0455534245434905E-002
  0.14850000000000002         -4.7604188821779692E-002
  0.14887500000000004         -4.2391156954827536E-002
  0.14924999999999999         -3.6460212937497322E-002
  0.14962500000000001         -3.1601556219821775E-002
  0.15000000000000002         -2.9658891287986010E-002
  0.15037499999999998         -3.2345227706892327E-002
  0.15075000000000000         -4.0995436451909700E-002
  0.15112500000000001         -5.6303259408469940E-002
  0.15150000000000002         -7.8168412813319960E-002
  0.15187499999999998        -0.10539241561654510     
  0.15225000000000000        -0.13579046965990518     
  0.15262500000000001        -0.16622712846751184     
  0.15300000000000002        -0.19290140718603827     
  0.15337499999999998        -0.21185562580690170     
  0.15375000000000000        -0.21937795776840796     
  0.15412500000000001        -0.21257621184001080     
  0.15450000000000003        -0.18984698558397090     
  0.15487499999999998        -0.15102272132132766     
  0.15525000000000000         -9.7645152200437013E-002
  0.15562500000000001         -3.2702688915897227E-002
  0.15600000000000003          3.9635968427055940E-002
  0.15637499999999999         0.11447546093167268     
  0.15675000000000000         0.18672501756200510     
  0.15712500000000001         0.25165962593716829     
  0.15750000000000003         0.30535151326522170     
  0.15787499999999999         0.34504196230883111     
  0.15825000000000000         0.36930686046998007     
  0.15862500000000002         0.37809947881435846     
  0.15900000000000003         0.37261131497913247     
  0.15937499999999999         0.35502556505781135     
  0.15975000000000000         0.32822113436455802     
  0.16012500000000002         0.29526499357574321     
  0.16050000000000003         0.25915556624928493     
  0.16087499999999999         0.22233053551273474     
  0.16125000000000000         0.18638254530938275     
  0.16162500000000002         0.15186012810860805     
  0.16200000000000003         0.11813118810466766     
  0.16237499999999999          8.3452258720121644E-002
  0.16275000000000001          4.5274255086930004E-002
  0.16312500000000002          5.1058329467817964E-004
  0.16350000000000003         -5.3752122385707146E-002
  0.16387499999999999        -0.11976890052288575     
  0.16425000000000001        -0.19838405567430889     
  0.16462500000000002        -0.28857401825729362     
  0.16500000000000004        -0.38707967643343288     
  0.16537499999999999        -0.48840829940932029     
  0.16575000000000001        -0.58507885665324122     
  0.16612500000000002        -0.66841642705130588     
  0.16650000000000004        -0.72936051897518528     
  0.16687500000000000        -0.75978981202814122     
  0.16725000000000001        -0.75351083899643423     
  0.16762500000000002        -0.70735304074881289     
  0.16799999999999998        -0.62175392634944249     
  0.16837500000000000        -0.50096735336799592     
  0.16875000000000001        -0.35276563307184661     
  0.16912500000000003        -0.18743246177311024     
  0.16949999999999998         -1.6869477278157685E-002
  0.16987500000000000         0.14705380381770239     
  0.17025000000000001         0.29380415210938415     
  0.17062500000000003         0.41525869998154952     
  0.17099999999999999         0.50654140538415948     
  0.17137500000000000         0.56629071596542380     
  0.17175000000000001         0.59625005807262488     
  0.17212500000000003         0.60089871171412590     
  0.17249999999999999         0.58620715594017070     
  0.17287500000000000         0.55854327012266580     
  0.17325000000000002         0.52389001651327094     
  0.17362500000000003         0.48676523869194255     
  0.17399999999999999         0.44987431075086448     
  0.17437500000000000         0.41401873174566139     
  0.17475000000000002         0.37821823536079435     
  0.17512500000000003         0.34036729335026739     
  0.17549999999999999         0.29784701541029490     
  0.17587500000000000         0.24808395301483316     
  0.17625000000000002         0.18933155472045957     
  0.17662500000000003         0.12116661207666857     
  0.17699999999999999          4.4390287355652591E-002
  0.17737500000000000         -3.8439409178684159E-002
  0.17775000000000002        -0.12361166993055861     
  0.17812500000000003        -0.20647385135535903     
  0.17849999999999999        -0.28184105401770249     
  0.17887500000000001        -0.34477489728620447     
  0.17925000000000002        -0.39098768373035842     
  0.17962500000000003        -0.41747447948381589     
  0.17999999999999999        -0.42292375968148832     
  0.18037500000000001        -0.40777086558558384     
  0.18075000000000002        -0.37440337368362431     
  0.18112500000000004        -0.32669128342531262     
  0.18149999999999999        -0.26946513055476495     
  0.18187500000000001        -0.20798489924204600     
  0.18225000000000002        -0.14707020170264840     
  0.18262500000000004         -9.0488720860587235E-002
  0.18300000000000000         -4.0782099996562071E-002
  0.18337500000000001          1.3093709687730382E-003
  0.18375000000000002          3.6167425267714333E-002
  0.18412499999999998          6.5096487557891727E-002
  0.18450000000000000          8.9641126187779696E-002
  0.18487500000000001         0.11071817752458252     
  0.18525000000000003         0.12849741390558994     
  0.18562499999999998         0.14173372608027784     
  0.18600000000000000         0.14820371297491475     
  0.18637500000000001         0.14517925444889357     
  0.18675000000000003         0.12996744054435400     
  0.18712499999999999         0.10108533833853373     
  0.18750000000000000          5.8721213129283467E-002
  0.18787500000000001          5.3800761728625274E-003
  0.18825000000000003         -5.4072162565520582E-002
  0.18862499999999999        -0.11298966233856420     
  0.18900000000000000        -0.16364367135057273     