  -1.4999999999999999E-002     0.0000000000000000     
  -1.4624999999999999E-002     0.0000000000000000     
  -1.4249999999999999E-002     0.0000000000000000     
  -1.3874999999999998E-002     0.0000000000000000     
  -1.3500000000000000E-002     0.0000000000000000     
  -1.3125000000000000E-002     0.0000000000000000     
  -1.2749999999999999E-002     0.0000000000000000     
  -1.2374999999999999E-002     0.0000000000000000     
  -1.2000000000000000E-002     0.0000000000000000     
  -1.1625000000000000E-002     0.0000000000000000     
  -1.1250000000000000E-002     0.0000000000000000     
  -1.0874999999999999E-002     0.0000000000000000     
  -1.0499999999999999E-002     0.0000000000000000     
  -1.0124999999999999E-002     0.0000000000000000     
  -9.7499999999999983E-003     0.0000000000000000     
  -9.3749999999999979E-003     0.0000000000000000     
  -8.9999999999999993E-003     0.0000000000000000     
  -8.6249999999999990E-003     0.0000000000000000     
  -8.2500000000000004E-003     0.0000000000000000     
  -7.8750000000000001E-003     0.0000000000000000     
  -7.4999999999999989E-003     0.0000000000000000     
  -7.1249999999999994E-003     0.0000000000000000     
  -6.7499999999999991E-003     0.0000000000000000     
  -6.3749999999999987E-003     0.0000000000000000     
  -5.9999999999999984E-003     0.0000000000000000     
  -5.6249999999999998E-003     0.0000000000000000     
  -5.2499999999999995E-003     0.0000000000000000     
  -4.8749999999999991E-003     0.0000000000000000     
  -4.4999999999999988E-003     0.0000000000000000     
  -4.1249999999999985E-003     0.0000000000000000     
  -3.7499999999999981E-003     0.0000000000000000     
  -3.3749999999999995E-003     0.0000000000000000     
  -2.9999999999999992E-003     0.0000000000000000     
  -2.6249999999999989E-003     0.0000000000000000     
  -2.2499999999999985E-003     0.0000000000000000     
  -1.8749999999999982E-003     0.0000000000000000     
  -1.4999999999999996E-003     0.0000000000000000     
  -1.1249999999999993E-003     0.0000000000000000     
  -7.4999999999999893E-004     0.0000000000000000     
  -3.7499999999999860E-004     0.0000000000000000     
   1.7347234759768071E-018    -1.2965432181826666E-036
   3.7500000000000207E-004     4.3260400241213489E-036
   7.5000000000000067E-004    -4.9861590596421500E-036
   1.1250000000000010E-003    -2.7719065713532403E-035
   1.5000000000000013E-003    -4.1147055358371201E-034
   1.8750000000000017E-003     1.1879386248246921E-033
   2.2500000000000020E-003     1.5283535742930138E-033
   2.6250000000000023E-003    -1.3538400899785327E-032
   3.0000000000000027E-003     3.4566755992309912E-032
   3.3750000000000030E-003    -6.8910483667037234E-032
   3.7499999999999999E-003     8.5878236445331473E-032
   4.1250000000000002E-003     7.2891314128094492E-031
   4.5000000000000005E-003    -2.5807947057532306E-031
   4.8750000000000009E-003    -2.7328119676154894E-029
   5.2500000000000012E-003     8.5692977088869883E-029
   5.6250000000000015E-003     3.2094390165958228E-028
   6.0000000000000019E-003    -3.4563906511106022E-027
   6.3750000000000022E-003     1.4621212660916377E-026
   6.7500000000000025E-003    -4.3328133692094387E-026
   7.1250000000000029E-003     1.0334808257564640E-025
   7.5000000000000032E-003    -2.3998563165494131E-025
   7.8750000000000001E-003     6.1683479300994542E-024
   8.2500000000000004E-003     1.9005855932784969E-023
   8.6250000000000007E-003     7.6515698071879418E-023
   9.0000000000000011E-003     2.8495784444882606E-022
   9.3750000000000014E-003     1.0711818452965000E-021
   9.7500000000000017E-003     3.9338522784268540E-021
   1.0125000000000002E-002     1.4198934019975755E-020
   1.0500000000000002E-002     5.0315389240497130E-020
   1.0875000000000003E-002     1.7505955459963472E-019
   1.1250000000000003E-002     5.9800413961661837E-019
   1.1625000000000003E-002     2.0055932534568749E-018
   1.2000000000000000E-002     6.6038788650947059E-018
   1.2375000000000001E-002     2.1348119918799475E-017
   1.2750000000000001E-002     6.7751550181369866E-017
   1.3125000000000001E-002     2.1108839598220920E-016
   1.3500000000000002E-002     6.4563961446877125E-016
   1.3875000000000002E-002     1.9385638063542495E-015
   1.4250000000000002E-002     5.7138522159893656E-015
   1.4625000000000003E-002     1.6531783130675330E-014
   1.5000000000000003E-002     4.6950799434168266E-014
   1.5375000000000003E-002     1.3088265816865640E-013
   1.5750000000000004E-002     3.5811883998982453E-013
   1.6125000000000000E-002     9.6173909134187204E-013
   1.6500000000000001E-002     2.5349193933511383E-012
   1.6875000000000001E-002     6.5572420493638460E-012
   1.7250000000000001E-002     1.6646280740990836E-011
   1.7625000000000002E-002     4.1469339070007319E-011
   1.8000000000000002E-002     1.0137609665908992E-010
   1.8375000000000002E-002     2.4317284427463917E-010
   1.8750000000000003E-002     5.7232315149710345E-010
   1.9125000000000003E-002     1.3215743355650547E-009
   1.9500000000000003E-002     2.9938738630657067E-009
   1.9875000000000004E-002     6.6533544425173438E-009
   2.0250000000000004E-002     1.4503598992053292E-008
   2.0625000000000004E-002     3.1010225545412131E-008
   2.1000000000000005E-002     6.5026324342660469E-008
   2.1375000000000005E-002     1.3371677815655177E-007
   2.1750000000000005E-002     2.6961579040554495E-007
   2.2125000000000006E-002     5.3299325144280871E-007
   2.2499999999999999E-002     1.0328892698464475E-006
   2.2875000000000000E-002     1.9619268730502000E-006
   2.3250000000000000E-002     3.6520333295419131E-006
   2.3625000000000000E-002     6.6610032051945558E-006
   2.4000000000000000E-002     1.1901602158959621E-005
   2.4375000000000001E-002     2.0827577657791171E-005
   2.4750000000000001E-002     3.5688716570841320E-005
   2.5125000000000001E-002     5.9862287920829313E-005
   2.5500000000000002E-002     9.8259456322288558E-005
   2.5875000000000002E-002     1.5776883063264594E-004
   2.6250000000000002E-002     2.4769101046908878E-004
   2.6625000000000003E-002     3.8003256902124417E-004
   2.7000000000000003E-002     5.6949476590556773E-004
   2.7375000000000003E-002     8.3292502430670052E-004
   2.7750000000000004E-002     1.1879396760089925E-003
   2.8125000000000004E-002     1.6503729062939687E-003
   2.8500000000000004E-002     2.2304921174948851E-003
   2.8875000000000005E-002     2.9274286966508318E-003
   2.9250000000000005E-002     3.7229314969231915E-003
   2.9625000000000005E-002     4.5735617865843084E-003
   3.0000000000000006E-002     5.4041526993944197E-003
   3.0375000000000006E-002     6.1033932273633733E-003
   3.0750000000000000E-002     6.5215210701904114E-003
   3.1125000000000000E-002     6.4782660734147698E-003
   3.1500000000000000E-002     5.7743226337613456E-003
   3.1875000000000001E-002     4.2143763445874165E-003
   3.2250000000000001E-002     1.6386509569954332E-003
   3.2625000000000001E-002    -2.0397135744314155E-003
   3.3000000000000002E-002    -6.8018414471405948E-003
   3.3375000000000002E-002    -1.2485233465611072E-002
   3.3750000000000002E-002    -1.8775740221589565E-002
   3.4125000000000003E-002    -2.5205547281716357E-002
   3.4500000000000003E-002    -3.1195017213615110E-002
   3.4875000000000003E-002    -3.6107297577539832E-002
   3.5250000000000004E-002    -3.9346212358524646E-002
   3.5625000000000004E-002    -4.0445684128718899E-002
   3.6000000000000004E-002    -3.9184656713612709E-002
   3.6375000000000005E-002    -3.5643459673423673E-002
   3.6750000000000005E-002    -3.0262920385867625E-002
   3.7125000000000005E-002    -2.3796149800240106E-002
   3.7500000000000006E-002    -1.7244903230954803E-002
   3.7875000000000006E-002    -1.1685342983210433E-002
   3.8250000000000006E-002    -8.1144539214981319E-003
   3.8625000000000007E-002    -7.1935643034000468E-003
   3.9000000000000000E-002    -9.1160732020181406E-003
   3.9375000000000000E-002    -1.3455112357659678E-002
   3.9750000000000001E-002    -1.9109550119488661E-002
   4.0125000000000001E-002    -2.4420957541755720E-002
   4.0500000000000001E-002    -2.7304860377731416E-002
   4.0875000000000002E-002    -2.5565435629101220E-002
   4.1250000000000002E-002    -1.7203634498269234E-002
   4.1625000000000002E-002    -7.8320191215839382E-004
   4.2000000000000003E-002     2.4262723489871997E-002
   4.2375000000000003E-002     5.7400766399205175E-002
   4.2750000000000003E-002     9.6898548790860933E-002
   4.3125000000000004E-002    0.13988539198073047     
   4.3500000000000004E-002    0.18253006282429279     
   4.3875000000000004E-002    0.22042559334530290     
   4.4250000000000005E-002    0.24900647502358836     
   4.4625000000000005E-002    0.26409399820904750     
   4.5000000000000005E-002    0.26237122102677785     
   4.5375000000000006E-002    0.24187873391775830     
   4.5750000000000006E-002    0.20235351609610577     
   4.6125000000000006E-002    0.14537416737198686     
   4.6500000000000007E-002     7.4428483562653941E-002
   4.6875000000000007E-002    -5.3877006731339102E-003
   4.7250000000000000E-002    -8.7721264547462707E-002
   4.7625000000000001E-002   -0.16557905504575551     
   4.8000000000000001E-002   -0.23208313253442175     
   4.8375000000000001E-002   -0.28113246830460892     
   4.8750000000000002E-002   -0.30823735798602697     
   4.9125000000000002E-002   -0.31102293848039564     
   4.9500000000000002E-002   -0.28966146176994212     
   4.9875000000000003E-002   -0.24689902506219691     
   5.0250000000000003E-002   -0.18789938300978454     
   5.0625000000000003E-002   -0.11965675566292709     
   5.1000000000000004E-002    -5.0154710322687403E-002
   5.1375000000000004E-002     1.2483071861601910E-002
   5.1750000000000004E-002     6.1138154268069789E-002
   5.2125000000000005E-002     9.0514127111815917E-002
   5.2500000000000005E-002     9.7854408002285176E-002
   5.2875000000000005E-002     8.3241639728814251E-002
   5.3250000000000006E-002     4.9607300225604931E-002
   5.3625000000000006E-002     2.2035415497379963E-003
   5.4000000000000006E-002    -5.2046703415830453E-002
   5.4375000000000007E-002   -0.10559670982171915     
   5.4750000000000007E-002   -0.15118388157726803     
   5.5125000000000007E-002   -0.18278535984697886     
   5.5500000000000008E-002   -0.19624072922477256     
   5.5875000000000008E-002   -0.18954396362866954     
   5.6250000000000008E-002   -0.16293757654623170     
   5.6625000000000009E-002   -0.11850882265408527     
   5.7000000000000009E-002    -5.9675022129117294E-002
   5.7375000000000009E-002     9.3710420173918826E-003
   5.7750000000000010E-002     8.4271090112843727E-002
   5.8125000000000010E-002    0.16096529792602340     
   5.8500000000000010E-002    0.23580058299160322     
   5.8875000000000011E-002    0.30564336022117455     
   5.9250000000000011E-002    0.36760001948734866     
   5.9624999999999997E-002    0.41877777898046942     
   5.9999999999999998E-002    0.45605424939577366     
   6.0374999999999998E-002    0.47594768820407973     
   6.0749999999999998E-002    0.47475014968251705     
   6.1124999999999999E-002    0.44881852082351148     
   6.1499999999999999E-002    0.39520978151020653     
   6.1874999999999999E-002    0.31240451311521522     
   6.2250000000000000E-002    0.20080950516021662     
   6.2625000000000000E-002     6.3502555235266239E-002
   6.3000000000000000E-002    -9.3731711795994127E-002
   6.3375000000000001E-002   -0.26250058023322453     
   6.3750000000000001E-002   -0.43236008987555635     
   6.4125000000000001E-002   -0.59173857239740912     
   6.4500000000000002E-002   -0.72906076871979830     
   6.4875000000000002E-002   -0.83386923843966254     
   6.5250000000000002E-002   -0.89793810197846546     
   6.5625000000000003E-002   -0.91587984222656749     
   6.6000000000000003E-002   -0.88566652705925852     
   6.6375000000000003E-002   -0.80856520411141553     
   6.6750000000000004E-002   -0.68886960940988140     
   6.7125000000000004E-002   -0.53331559121479410     
   6.7500000000000004E-002   -0.35051861951449814     
   6.7875000000000005E-002   -0.15034346557714096     
   6.8250000000000005E-002     5.6652659039197167E-002
   6.8625000000000005E-002    0.25959970494752882     
   6.9000000000000006E-002    0.44791115526186931     
   6.9375000000000006E-002    0.61148787135731553     
   6.9750000000000006E-002    0.74148130584469940     
   7.0125000000000007E-002    0.83080527355615696     
   7.0500000000000007E-002    0.87507859643412733     
   7.0875000000000007E-002    0.87303385405318157     
   7.1250000000000008E-002    0.82723003722273603     
   7.1625000000000008E-002    0.74423486879248080     
   7.2000000000000008E-002    0.63396228694414192     
   7.2375000000000009E-002    0.50905434254433968     
   7.2750000000000009E-002    0.38323130246337522     
   7.3125000000000009E-002    0.26953111160852805     
   7.3500000000000010E-002    0.17851686140770587     
   7.3875000000000010E-002    0.11662600385936975     
   7.4250000000000010E-002     8.5315365141787752E-002
   7.4625000000000011E-002     8.0485188165847127E-002
   7.5000000000000011E-002     9.3634431100557539E-002
   7.5375000000000011E-002    0.11300604281462732     
   7.5750000000000012E-002    0.12567112250540929     
   7.6124999999999998E-002    0.11989981913455357     
   7.6499999999999999E-002     8.7394580155824103E-002
   7.6874999999999999E-002     2.4349342611161756E-002
   7.7249999999999999E-002    -6.7324763066889060E-002
   7.7625000000000000E-002   -0.18035794006738207     
   7.8000000000000000E-002   -0.30367442022976954     
   7.8375000000000000E-002   -0.42367272497088670     
   7.8750000000000001E-002   -0.52666283486836096     
   7.9125000000000001E-002   -0.60099821278372967     
   7.9500000000000001E-002   -0.63900652920225687     
   7.9875000000000002E-002   -0.63766684232511783     
   8.0250000000000002E-002   -0.59907832101969438     
   8.0625000000000002E-002   -0.53020631477396463     
   8.1000000000000003E-002   -0.44114851851857367     
   8.1375000000000003E-002   -0.34358235542030346     
   8.1750000000000003E-002   -0.24954406448809385     
   8.2125000000000004E-002   -0.16886521869862109     
   8.2500000000000004E-002   -0.10850749632628937     
   8.2875000000000004E-002    -7.1930105402796596E-002
   8.3250000000000005E-002    -5.8311761268068030E-002
   8.3625000000000005E-002    -6.3691039938147814E-002
   8.4000000000000005E-002    -8.1713156955425290E-002
   8.4375000000000006E-002   -0.10436406598153554     
   8.4750000000000006E-002   -0.12394704994392890     
   8.5125000000000006E-002   -0.13360418227974030     
   8.5500000000000007E-002   -0.12861138909981568     
   8.5875000000000007E-002   -0.10681244942212982     
   8.6250000000000007E-002    -6.8359315561596273E-002
   8.6625000000000008E-002    -1.5900214018746590E-002
   8.7000000000000008E-002     4.6488848630226870E-002
   8.7375000000000008E-002    0.11379605131694231     
   8.7750000000000009E-002    0.18112858661220438     
   8.8125000000000009E-002    0.24409198291232537     
   8.8500000000000009E-002    0.29925066523847788     
   8.8875000000000010E-002    0.34404911580321984     
   8.9250000000000010E-002    0.37662307621031960     
   8.9625000000000010E-002    0.39518212708131517     
   9.0000000000000011E-002    0.39739372194211264     
   9.0375000000000011E-002    0.38055142163800948     
   9.0750000000000011E-002    0.34134087953803627     
   9.1125000000000012E-002    0.27670440108438232     
   9.1500000000000012E-002    0.18521036031317176     
   9.1875000000000012E-002     6.8519990062047231E-002
   9.2250000000000013E-002    -6.7171937376678134E-002
   9.2624999999999999E-002   -0.20994874945873893     
   9.2999999999999999E-002   -0.34212424063730995     
   9.3375000000000000E-002   -0.44169034137627372     
   9.3750000000000000E-002   -0.48474030313420474     
   9.4125000000000000E-002   -0.44945233318713729     
   9.4500000000000001E-002   -0.32078763607257388     
   9.4875000000000001E-002    -9.4670802327643189E-002
   9.5250000000000001E-002    0.21836213403317331     
   9.5625000000000002E-002    0.59199886908403543     
   9.6000000000000002E-002    0.98551337704708764     
   9.6375000000000002E-002     1.3475020234773012     
   9.6750000000000003E-002     1.6225445509110066     
   9.7125000000000003E-002     1.7592855624157020     
   9.7500000000000003E-002     1.7184513047289074     
   9.7875000000000004E-002     1.4801746616976952     
   9.8250000000000004E-002     1.0484957980924816     
   9.8625000000000004E-002    0.45268108666865176     
   9.9000000000000005E-002   -0.25520923421959441     
   9.9375000000000005E-002    -1.0062418570873954     
   9.9750000000000005E-002    -1.7229148570134702     
  0.10012500000000001         -2.3290086092554150     
  0.10050000000000001         -2.7586793428298049     
  0.10087500000000001         -2.9647428068135926     
  0.10125000000000001         -2.9235662309325767     
  0.10162500000000001         -2.6371922307774578     
  0.10200000000000001         -2.1323619607075752     
  0.10237500000000001         -1.4560713450661948     
  0.10275000000000001        -0.66982022597565494     
  0.10312500000000001         0.15749610382159984     
  0.10350000000000001         0.95726992455140303     
  0.10387500000000001          1.6672657308449388     
  0.10425000000000001          2.2369127459142657     
  0.10462500000000001          2.6305355635898220     
  0.10500000000000001          2.8292447991980412     
  0.10537500000000001          2.8302871436721242     
  0.10575000000000001          2.6454040242694683     
  0.10612500000000001          2.2989449836775200     
  0.10650000000000001          1.8234688032348743     
  0.10687500000000001          1.2569720830286237     
  0.10725000000000001         0.63991767955524614     
  0.10762500000000001          1.1252443813002749E-002
  0.10800000000000001        -0.59296783973371903     
  0.10837500000000001         -1.1416926172005697     
  0.10875000000000001         -1.6101886357739412     
  0.10912500000000000         -1.9802713232872986     
  0.10950000000000000         -2.2406007622004775     
  0.10987500000000000         -2.3863739698136639     
  0.11025000000000000         -2.4186287641321060     
  0.11062500000000001         -2.3435416634482560     
  0.11100000000000000         -2.1715514128899018     
  0.11137500000000002         -1.9161582721955113     
  0.11175000000000000         -1.5932322971475565     
  0.11212500000000002         -1.2198758346647587     
  0.11250000000000000        -0.81379547019529008     
  0.11287500000000002        -0.39212588634655782     
  0.11325000000000000          2.8433765858162138E-002
  0.11362500000000002         0.43306862282516267     
  0.11400000000000000         0.80860416150978520     
  0.11437500000000002          1.1436567746287856     
  0.11475000000000000          1.4297591608025215     
  0.11512500000000002          1.6602916011716808     
  0.11550000000000001          1.8311130166974958     
  0.11587500000000002          1.9405936127939865     
  0.11625000000000001          1.9887318901768858     
  0.11662500000000002          1.9776347872139559     
  0.11700000000000001          1.9112093071392897     
  0.11737499999999999          1.7941908592252531     
  0.11775000000000001          1.6327313723498911     
  0.11812499999999999          1.4337836389174563     
  0.11850000000000001          1.2046919564923066     
  0.11887499999999999         0.95318548862152896     
  0.11925000000000001         0.68699190299454904     
  0.11962500000000000         0.41397572670797061     
  0.12000000000000001         0.14105894094390531     
  0.12037500000000000        -0.12468857691896151     
  0.12075000000000001        -0.37700022012146206     
  0.12112500000000000        -0.61088840662812305     
  0.12150000000000001        -0.82118118941848350     
  0.12187500000000000         -1.0043954380144435     
  0.12225000000000001         -1.1577015379496376     
  0.12262500000000000         -1.2788205807361321     
  0.12300000000000001         -1.3669955700347951     
  0.12337500000000000         -1.4217564224212327     
  0.12375000000000001         -1.4437809971190307     
  0.12412500000000000         -1.4342300319905137     
  0.12450000000000001         -1.3952536090697245     
  0.12487500000000000         -1.3291778693757912     
  0.12525000000000003         -1.2386554109510672     
  0.12562499999999999         -1.1273536403377600     
  0.12600000000000000        -0.99838206254563289     
  0.12637500000000002        -0.85515662080556698     
  0.12675000000000003        -0.70167153898706869     
  0.12712499999999999        -0.54107244268284982     
  0.12750000000000000        -0.37687075063125108     
  0.12787500000000002        -0.21255128482443419     
  0.12825000000000003         -5.0837173294626795E-002
  0.12862499999999999         0.10526758013817419     
  0.12900000000000000         0.25333639342796521     
  0.12937500000000002         0.39109977853503930     
  0.12975000000000003         0.51648353960375604     
  0.13012499999999999         0.62806149303872472     
  0.13050000000000000         0.72420969934287149     
  0.13087500000000002         0.80390730124129195     
  0.13125000000000003         0.86664036725680849     
  0.13162499999999999         0.91169426465021841     
  0.13200000000000001         0.93910507205347649     
  0.13237500000000002         0.94926974432464195     
  0.13275000000000003         0.94245209358643711     
  0.13312499999999999         0.91980156656315826     
  0.13350000000000001         0.88214148794730185     
  0.13387500000000002         0.83094534472846582     
  0.13424999999999998         0.76772388581699158     
  0.13462499999999999         0.69388639273352348     
  0.13500000000000001         0.61153258721736425     
  0.13537500000000002         0.52208089452444528     
  0.13574999999999998         0.42759822117991791     
  0.13612500000000000         0.32987096572411945     
  0.13650000000000001         0.23042308686775945     
  0.13687500000000002         0.13116918476073461     
  0.13724999999999998          3.3547143298269258E-002
  0.13762500000000000         -6.0924328593423546E-002
  0.13800000000000001        -0.15105357973429348     
  0.13837500000000003        -0.23538721171398666     
  0.13874999999999998        -0.31298807733808348     
  0.13912500000000000        -0.38297504636707863     
  0.13950000000000001        -0.44423779969314764     
  0.13987500000000003        -0.49641419601387449     
  0.14024999999999999        -0.53899857030374099     
  0.14062500000000000        -0.57132204333252079     
  0.14100000000000001        -0.59358148805350308     
  0.14137500000000003        -0.60565164613687728     
  0.14174999999999999        -0.60761319946366588     
  0.14212500000000000        -0.59993981453253287     
  0.14250000000000002        -0.58294400212674580     
  0.14287500000000003        -0.55751084840959853     
  0.14324999999999999        -0.52427841100435757     
  0.14362500000000000        -0.48418380549086809     
  0.14400000000000002        -0.43832452740124039     
  0.14437500000000003        -0.38756697845071464     
  0.14474999999999999        -0.33317528617626985     
  0.14512500000000000        -0.27612073407103288     
  0.14550000000000002        -0.21728102529242155     
  0.14587500000000003        -0.15781219052647372     
  0.14624999999999999         -9.8437639155886464E-002
  0.14662500000000001         -3.9987359046891310E-002
  0.14700000000000002          1.6767179754309240E-002
  0.14737500000000003          7.1256433767368621E-002
  0.14774999999999999         0.12278801225093612     
  0.14812500000000001         0.17073034625521222     
  0.14850000000000002         0.21479373466711632     
  0.14887500000000004         0.25438586230023175     
  0.14924999999999999         0.28901219876518935     
  0.14962500000000001         0.31853919372148054     
  0.15000000000000002         0.34242970266276573     
  0.15037499999999998         0.36071747853540104     
  0.15075000000000000         0.37305293293355474     
  0.15112500000000001         0.37945706530956114     
  0.15150000000000002         0.38014044019793825     
  0.15187499999999998         0.37519182431102593     
  0.15225000000000000         0.36492642805918535     
  0.15262500000000001         0.34980395273363563     
  0.15300000000000002         0.33024934865823868     
  0.15337499999999998         0.30673323311140582     
  0.15375000000000000         0.27988205199011790     
  0.15412500000000001         0.25027590170035419     
  0.15450000000000003         0.21831754691996061     
  0.15487499999999998         0.18455165308687416     
  0.15525000000000000         0.14980805409065820     
  0.15562500000000001         0.11418912221301838     
  0.15600000000000003          7.8153710670731610E-002
  0.15637499999999999          4.2548783183799330E-002
  0.15675000000000000          7.3742406841433477E-003
  0.15712500000000001         -2.7042282586052485E-002
  0.15750000000000003         -5.9911970097797210E-002
  0.15787499999999999         -9.1308468320218453E-002
  0.15825000000000000        -0.12068034680441339     
  0.15862500000000002        -0.14755915422405627     
  0.15900000000000003        -0.17180078272393012     
  0.15937499999999999        -0.19292323818089996     
  0.15975000000000000        -0.21077350962142816     
  0.16012500000000002        -0.22500369978417653     
  0.16050000000000003        -0.23550628424299705     
  0.16087499999999999        -0.24243952984539510     
  0.16125000000000000        -0.24542337279685730     
  0.16162500000000002        -0.24482195079780350     
  0.16200000000000003        -0.24085474892428388     
  0.16237499999999999        -0.23352096026077568     
  0.16275000000000001        -0.22326197611754317     
  0.16312500000000002        -0.21045812863996927     
  0.16350000000000003        -0.19533935732852817     
  0.16387499999999999        -0.17823936540035143     
  0.16425000000000001        -0.15962796515892552     
  0.16462500000000002        -0.13969848506196586     
  0.16500000000000004        -0.11862977422960287     
  0.16537499999999999         -9.6915556189802188E-002
  0.16575000000000001         -7.4576747106336605E-002
  0.16612500000000002         -5.1879311065991189E-002
  0.16650000000000004         -2.9333892040076200E-002
  0.16687500000000000         -6.7955089693113140E-003
  0.16725000000000001          1.5286040245783049E-002
  0.16762500000000002          3.6354651084157939E-002
  0.16799999999999998          5.6721709520396270E-002
  0.16837500000000000          7.5809129843229933E-002
  0.16875000000000001          9.3285140896816887E-002
  0.16912500000000003         0.10921996646320624     
  0.16949999999999998         0.12325008189840968     
  0.16987500000000000         0.13502263430137323     
  0.17025000000000001         0.14467098724049926     
  0.17062500000000003         0.15182846098327635     
  0.17099999999999999         0.15641847318666591     
  0.17137500000000000         0.15870266606901040     
  0.17175000000000001         0.15862134797853217     
  0.17212500000000003         0.15631312025734406     
  0.17249999999999999         0.15223738964890360     
  0.17287500000000000         0.14648069622777823     
  0.17325000000000002         0.13932975741563669     
  0.17362500000000003         0.13094762311406782     
  0.17399999999999999         0.12147574005408762     
  0.17437500000000000         0.11098579545910524     
  0.17475000000000002          9.9438851870580616E-002
  0.17512500000000003          8.6909578780952554E-002
  0.17549999999999999          7.3554990667333509E-002
  0.17587500000000000          5.9249687630994939E-002
  0.17625000000000002          4.4433193924727166E-002
  0.17662500000000003          2.9278078673040928E-002
  0.17699999999999999          1.3913793296978587E-002
  0.17737500000000000         -1.0942542240918412E-003
  0.17775000000000002         -1.5686816797158470E-002
  0.17812500000000003         -2.9539369807557826E-002
  0.17849999999999999         -4.2549162235941448E-002
  0.17887500000000001         -5.4593140716486979E-002
  0.17925000000000002         -6.5473104249068326E-002
  0.17962500000000003         -7.5299661765903164E-002
  0.17999999999999999         -8.3893191662783556E-002
  0.18037500000000001         -9.1036884457827358E-002
  0.18075000000000002         -9.6976901463418336E-002
  0.18112500000000004        -0.10131506519372192     
  0.18149999999999999        -0.10413761718993041     
  0.18187500000000001        -0.10556294602626931     
  0.18225000000000002        -0.10547443377771124     
  0.18262500000000004        -0.10411456705809169     
  0.18300000000000000        -0.10157011456454740     
  0.18337500000000001         -9.7887136360575985E-002
  0.18375000000000002         -9.3252549566383361E-002
  0.18412499999999998         -8.7647915427645717E-002
  0.18450000000000000         -8.1187728938748094E-002
  0.18487500000000001         -7.3818923358856009E-002
  0.18525000000000003         -6.5726365871676420E-002
  0.18562499999999998         -5.6931623228421172E-002
  0.18600000000000000         -4.7453149005495146E-002
  0.18637500000000001         -3.7725766216362824E-002
  0.18675000000000003         -2.7655429205662468E-002
  0.18712499999999999         -1.7420849190345478E-002
  0.18750000000000000         -7.5414529140762319E-003
  0.18787500000000001          2.2654214394190100E-003
  0.18825000000000003          1.1601360936063825E-002
  0.18862499999999999          2.0402491003333134E-002
  0.18900000000000000          2.8608162013538302E-002