  -1.4999999999999999E-002     0.0000000000000000     
  -1.4624999999999999E-002     0.0000000000000000     
  -1.4249999999999999E-002     0.0000000000000000     
  -1.3874999999999998E-002     0.0000000000000000     
  -1.3500000000000000E-002     0.0000000000000000     
  -1.3125000000000000E-002     0.0000000000000000     
  -1.2749999999999999E-002     0.0000000000000000     
  -1.2374999999999999E-002     0.0000000000000000     
  -1.2000000000000000E-002     0.0000000000000000     
  -1.1625000000000000E-002     0.0000000000000000     
  -1.1250000000000000E-002     0.0000000000000000     
  -1.0874999999999999E-002     0.0000000000000000     
  -1.0499999999999999E-002     0.0000000000000000     
  -1.0124999999999999E-002     0.0000000000000000     
  -9.7499999999999983E-003     0.0000000000000000     
  -9.3749999999999979E-003     0.0000000000000000     
  -8.9999999999999993E-003     0.0000000000000000     
  -8.6249999999999990E-003     0.0000000000000000     
  -8.2500000000000004E-003     0.0000000000000000     
  -7.8750000000000001E-003     0.0000000000000000     
  -7.4999999999999989E-003     0.0000000000000000     
  -7.1249999999999994E-003     0.0000000000000000     
  -6.7499999999999991E-003     0.0000000000000000     
  -6.3749999999999987E-003     0.0000000000000000     
  -5.9999999999999984E-003     0.0000000000000000     
  -5.6249999999999998E-003     0.0000000000000000     
  -5.2499999999999995E-003     0.0000000000000000     
  -4.8749999999999991E-003     0.0000000000000000     
  -4.4999999999999988E-003     0.0000000000000000     
  -4.1249999999999985E-003     0.0000000000000000     
  -3.7499999999999981E-003     0.0000000000000000     
  -3.3749999999999995E-003     0.0000000000000000     
  -2.9999999999999992E-003     0.0000000000000000     
  -2.6249999999999989E-003     0.0000000000000000     
  -2.2499999999999985E-003     0.0000000000000000     
  -1.8749999999999982E-003     0.0000000000000000     
  -1.4999999999999996E-003     0.0000000000000000     
  -1.1249999999999993E-003     0.0000000000000000     
  -7.4999999999999893E-004     0.0000000000000000     
  -3.7499999999999860E-004     0.0000000000000000     
   1.7347234759768071E-018     0.0000000000000000     
   3.7500000000000207E-004     0.0000000000000000     
   7.5000000000000067E-004     0.0000000000000000     
   1.1250000000000010E-003     0.0000000000000000     
   1.5000000000000013E-003     0.0000000000000000     
   1.8750000000000017E-003     0.0000000000000000     
   2.2500000000000020E-003     0.0000000000000000     
   2.6250000000000023E-003     0.0000000000000000     
   3.0000000000000027E-003     0.0000000000000000     
   3.3750000000000030E-003     0.0000000000000000     
   3.7499999999999999E-003     0.0000000000000000     
   4.1250000000000002E-003     0.0000000000000000     
   4.5000000000000005E-003     0.0000000000000000     
   4.8750000000000009E-003     0.0000000000000000     
   5.2500000000000012E-003     2.6316849630854994E-038
   5.6250000000000015E-003     8.4834213395032800E-038
   6.0000000000000019E-003    -8.5478052267147474E-035
   6.3750000000000022E-003    -1.0237467590886627E-033
   6.7500000000000025E-003    -1.0501029644024875E-032
   7.1250000000000029E-003     2.5984803359355044E-032
   7.5000000000000032E-003     6.3543563742972123E-031
   7.8750000000000001E-003    -2.3372291330083510E-031
   8.2500000000000004E-003    -2.1879496901639983E-029
   8.6250000000000007E-003     6.5998748651122476E-029
   9.0000000000000011E-003     2.7738828566535974E-028
   9.3750000000000014E-003    -2.8580477151440782E-027
   9.7500000000000017E-003     1.1971813687500425E-026
   1.0125000000000002E-002    -3.5080009494790886E-026
   1.0500000000000002E-002     8.2002954380224224E-026
   1.0875000000000003E-002    -1.8924879280973124E-025
   1.1250000000000003E-002     4.8748562020030577E-024
   1.1625000000000003E-002     1.4589642039617702E-023
   1.2000000000000000E-002     5.9067734534162665E-023
   1.2375000000000001E-002     2.2029665055915928E-022
   1.2750000000000001E-002     8.2756038300194672E-022
   1.3125000000000001E-002     3.0396051570091568E-021
   1.3500000000000002E-002     1.0966942887885367E-020
   1.3875000000000002E-002     3.8851940988729006E-020
   1.4250000000000002E-002     1.3513682251501029E-019
   1.4625000000000003E-002     4.6149754995604151E-019
   1.5000000000000003E-002     1.5473330803212060E-018
   1.5375000000000003E-002     5.0935040406628394E-018
   1.5750000000000004E-002     1.6460994523056206E-017
   1.6125000000000000E-002     5.2227171538409449E-017
   1.6500000000000001E-002     1.6267586922105554E-016
   1.6875000000000001E-002     4.9743088274258668E-016
   1.7250000000000001E-002     1.4931751489484007E-015
   1.7625000000000002E-002     4.3999557884056196E-015
   1.8000000000000002E-002     1.2727239230264104E-014
   1.8375000000000002E-002     3.6137182950659079E-014
   1.8750000000000003E-002     1.0071616281612406E-013
   1.9125000000000003E-002     2.7551966657702605E-013
   1.9500000000000003E-002     7.3977444551509814E-013
   1.9875000000000004E-002     1.9495149853500189E-012
   2.0250000000000004E-002     5.0421722929152302E-012
   2.0625000000000004E-002     1.2798361044765969E-011
   2.1000000000000005E-002     3.1879985669685613E-011
   2.1375000000000005E-002     7.7927335786292327E-011
   2.1750000000000005E-002     1.8691644168104811E-010
   2.2125000000000006E-002     4.3991462807360113E-010
   2.2499999999999999E-002     1.0158481532691065E-009
   2.2875000000000000E-002     2.3014585252169343E-009
   2.3250000000000000E-002     5.1151674843912129E-009
   2.3625000000000000E-002     1.1152572982350752E-008
   2.4000000000000000E-002     2.3851040751459870E-008
   2.4375000000000001E-002     5.0029770017004416E-008
   2.4750000000000001E-002     1.0291927268475221E-007
   2.5125000000000001E-002     2.0762003128431006E-007
   2.5500000000000002E-002     4.1067577372006402E-007
   2.5875000000000002E-002     7.9641461343220288E-007
   2.6250000000000002E-002     1.5140235258845166E-006
   2.6625000000000003E-002     2.8210984467000774E-006
   2.7000000000000003E-002     5.1514275095474011E-006
   2.7375000000000003E-002     9.2170091008213403E-006
   2.7750000000000004E-002     1.6155394848628034E-005
   2.8125000000000004E-002     2.7734429531253436E-005
   2.8500000000000004E-002     4.6621725437003681E-005
   2.8875000000000005E-002     7.6720705594338068E-005
   2.9250000000000005E-002     1.2355172187180767E-004
   2.9625000000000005E-002     1.9465079315598858E-004
   3.0000000000000006E-002     2.9987378261555882E-004
   3.0375000000000006E-002     4.5155526828599712E-004
   3.0750000000000000E-002     6.6422870868534283E-004
   3.1125000000000000E-002     9.5385056297965509E-004
   3.1500000000000000E-002     1.3361676649888831E-003
   3.1875000000000001E-002     1.8240767258547617E-003
   3.2250000000000001E-002     2.4239134513020077E-003
   3.2625000000000001E-002     3.1307222472045301E-003
   3.3000000000000002E-002     3.9230515486940298E-003
   3.3375000000000002E-002     4.7571450725088452E-003
   3.3750000000000002E-002     5.5639834139327646E-003
   3.4125000000000003E-002     6.2465556545037906E-003
   3.4500000000000003E-002     6.6839701969461721E-003
   3.4875000000000003E-002     6.7383384482140631E-003
   3.5250000000000004E-002     6.2709290306512330E-003
   3.5625000000000004E-002     5.1603603275871338E-003
   3.6000000000000004E-002     3.3303785577275336E-003
   3.6375000000000005E-002     7.7085141378746991E-004
   3.6750000000000005E-002    -2.4354634819930051E-003
   3.7125000000000005E-002    -6.1070554994816402E-003
   3.7500000000000006E-002    -9.9615674734797495E-003
   3.7875000000000006E-002    -1.3641326595489972E-002
   3.8250000000000006E-002    -1.6754606268013957E-002
   3.8625000000000007E-002    -1.8936994256401427E-002
   3.9000000000000000E-002    -1.9916353447760930E-002
   3.9375000000000000E-002    -1.9592472701060383E-002
   3.9750000000000001E-002    -1.8075853046396917E-002
   4.0125000000000001E-002    -1.5731049272760804E-002
   4.0500000000000001E-002    -1.3145862966519033E-002
   4.0875000000000002E-002    -1.1087904508629651E-002
   4.1250000000000002E-002    -1.0392909420702780E-002
   4.1625000000000002E-002    -1.1827050978732774E-002
   4.2000000000000003E-002    -1.5961382597396656E-002
   4.2375000000000003E-002    -2.3001708618872178E-002
   4.2750000000000003E-002    -3.2712955366934707E-002
   4.3125000000000004E-002    -4.4375219961925255E-002
   4.3500000000000004E-002    -5.6771399712217757E-002
   4.3875000000000004E-002    -6.8336349916430172E-002
   4.4250000000000005E-002    -7.7281211027658281E-002
   4.4625000000000005E-002    -8.1796396523820036E-002
   4.5000000000000005E-002    -8.0299164739624451E-002
   4.5375000000000006E-002    -7.1616167967019154E-002
   4.5750000000000006E-002    -5.5130030079474007E-002
   4.6125000000000006E-002    -3.0927794925378060E-002
   4.6500000000000007E-002     2.4259489445734028E-004
   4.6875000000000007E-002     3.6957203955298140E-002
   4.7250000000000000E-002     7.7274919524313673E-002
   4.7625000000000001E-002    0.11887093903446244     
   4.8000000000000001E-002    0.15920842201166047     
   4.8375000000000001E-002    0.19572727264403472     
   4.8750000000000002E-002    0.22600197064654504     
   4.9125000000000002E-002    0.24787801552962008     
   4.9500000000000002E-002    0.25958609891730722     
   4.9875000000000003E-002    0.25984749393038920     
   5.0250000000000003E-002    0.24795111041672141     
   5.0625000000000003E-002    0.22379912173868649     
   5.1000000000000004E-002    0.18801664658814177     
   5.1375000000000004E-002    0.14190887864292648     
   5.1750000000000004E-002     8.7545013704891025E-002
   5.2125000000000005E-002     2.7634112073650935E-002
   5.2500000000000005E-002    -3.4544734248317971E-002
   5.2875000000000005E-002    -9.5335753052091576E-002
   5.3250000000000006E-002   -0.15101990253943232     
   5.3625000000000006E-002   -0.19804398392384315     
   5.4000000000000006E-002   -0.23344841379784775     
   5.4375000000000007E-002   -0.25513180677538716     
   5.4750000000000007E-002   -0.26211244487739405     
   5.5125000000000007E-002   -0.25466518459525839     
   5.5500000000000008E-002   -0.23435855259978622     
   5.5875000000000008E-002   -0.20377581876755663     
   5.6250000000000008E-002   -0.16638479675768542     
   5.6625000000000009E-002   -0.12593780114177580     
   5.7000000000000009E-002    -8.6149647725473039E-002
   5.7375000000000009E-002    -5.0215611923855784E-002
   5.7750000000000010E-002    -2.0420079344988188E-002
   5.8125000000000010E-002     2.0148939356002329E-003
   5.8500000000000010E-002     1.7012373742381903E-002
   5.8875000000000011E-002     2.5475637056667305E-002
   5.9250000000000011E-002     2.9048468382017086E-002
   5.9624999999999997E-002     2.9684986984136325E-002
   5.9999999999999998E-002     2.9294794484104568E-002
   6.0374999999999998E-002     2.9368388823608010E-002
   6.0749999999999998E-002     3.0704877171376745E-002
   6.1124999999999999E-002     3.3316384860270068E-002
   6.1499999999999999E-002     3.6507505592056302E-002
   6.1874999999999999E-002     3.8981258153820073E-002
   6.2250000000000000E-002     3.9225591632502735E-002
   6.2625000000000000E-002     3.5817304267289872E-002
   6.3000000000000000E-002     2.7774323067583609E-002
   6.3375000000000001E-002     1.4821744414946885E-002
   6.3750000000000001E-002    -2.4325822280301525E-003
   6.4125000000000001E-002    -2.2489196803789552E-002
   6.4500000000000002E-002    -4.3088868905456074E-002
   6.4875000000000002E-002    -6.1510093701469926E-002
   6.5250000000000002E-002    -7.4887519509836520E-002
   6.5625000000000003E-002    -8.0739898021701451E-002
   6.6000000000000003E-002    -7.7310997189961053E-002
   6.6375000000000003E-002    -6.3989243547957986E-002
   6.6750000000000004E-002    -4.1524048357639509E-002
   6.7125000000000004E-002    -1.2035774771902388E-002
   6.7500000000000004E-002     2.1127858705757452E-002
   6.7875000000000005E-002     5.3770092556136267E-002
   6.8250000000000005E-002     8.1483244184464648E-002
   6.8625000000000005E-002    0.10016626331326961     
   6.9000000000000006E-002    0.10684460244302235     
   6.9375000000000006E-002    0.10012848015476310     
   6.9750000000000006E-002     8.0566448409329527E-002
   7.0125000000000007E-002     5.0751844158755069E-002
   7.0500000000000007E-002     1.4981392782539973E-002
   7.0875000000000007E-002    -2.1227762668531436E-002
   7.1250000000000008E-002    -5.1979151816024000E-002
   7.1625000000000008E-002    -7.1796890742962957E-002
   7.2000000000000008E-002    -7.6551037298517768E-002
   7.2375000000000009E-002    -6.3981198821422919E-002
   7.2750000000000009E-002    -3.4099776265576726E-002
   7.3125000000000009E-002     1.0729796951803403E-002
   7.3500000000000010E-002     6.6279743922653789E-002
   7.3875000000000010E-002    0.12691203984167854     
   7.4250000000000010E-002    0.18646657959192459     
   7.4625000000000011E-002    0.23892998473783689     
   7.5000000000000011E-002    0.27926109921846320     
   7.5375000000000011E-002    0.30378522270255415     
   7.5750000000000012E-002    0.31045614764402429     
   7.6124999999999998E-002    0.29889033003325749     
   7.6499999999999999E-002    0.26995206028394580     
   7.6874999999999999E-002    0.22562120666004326     
   7.7249999999999999E-002    0.16834365509992921     
   7.7625000000000000E-002    0.10083189363427811     
   7.8000000000000000E-002     2.5814884238852753E-002
   7.8375000000000000E-002    -5.4113397096344107E-002
   7.8750000000000001E-002   -0.13627834106200254     
   7.9125000000000001E-002   -0.21795447828259529     
   7.9500000000000001E-002   -0.29602600871537788     
   7.9875000000000002E-002   -0.36713562366300412     
   8.0250000000000002E-002   -0.42752011885162133     
   8.0625000000000002E-002   -0.47348301224237899     
   8.1000000000000003E-002   -0.50165807820448660     
   8.1375000000000003E-002   -0.50946722727192606     
   8.1750000000000003E-002   -0.49570629839124492     
   8.2125000000000004E-002   -0.46068770988304875     
   8.2500000000000004E-002   -0.40659206578270096     
   8.2875000000000004E-002   -0.33701692913725756     
   8.3250000000000005E-002   -0.25684994280305473     
   8.3625000000000005E-002   -0.17138860101777206     
   8.4000000000000005E-002    -8.5774634230648072E-002
   8.4375000000000006E-002    -4.1335638422901888E-003
   8.4750000000000006E-002     7.0830292680518325E-002
   8.5125000000000006E-002    0.13817459337654492     
   8.5500000000000007E-002    0.19869802203376752     
   8.5875000000000007E-002    0.25444337241038806     
   8.6250000000000007E-002    0.30806124491776687     
   8.6625000000000008E-002    0.36214517156194459     
   8.7000000000000008E-002    0.41825392257957739     
   8.7375000000000008E-002    0.47643869523419680     
   8.7750000000000009E-002    0.53481335030815136     
   8.8125000000000009E-002    0.58953581621677476     
   8.8500000000000009E-002    0.63516776647410467     
   8.8875000000000010E-002    0.66545911286560666     
   8.9250000000000010E-002    0.67397300207739441     
   8.9625000000000010E-002    0.65530700515528095     
   9.0000000000000011E-002    0.60575659946243277     
   9.0375000000000011E-002    0.52409255722561654     
   9.0750000000000011E-002    0.41185720015789612     
   9.1125000000000012E-002    0.27337565513188283     
   9.1500000000000012E-002    0.11540675892181440     
   9.1875000000000012E-002    -5.3550041645197555E-002
   9.2250000000000013E-002   -0.22384894389541987     
   9.2624999999999999E-002   -0.38597022251889745     
   9.2999999999999999E-002   -0.53088711219213458     
   9.3375000000000000E-002   -0.65114279987707735     
   9.3750000000000000E-002   -0.74118472475384145     
   9.4125000000000000E-002   -0.79752598669629959     
   9.4500000000000001E-002   -0.81925094857245928     
   9.4875000000000001E-002   -0.80748801153318950     
   9.5250000000000001E-002   -0.76535602030573635     
   9.5625000000000002E-002   -0.69774973463763701     
   9.6000000000000002E-002   -0.61072866426027850     
   9.6375000000000002E-002   -0.51096950901872895     
   9.6750000000000003E-002   -0.40550806422006558     
   9.7125000000000003E-002   -0.30064039654675989     
   9.7500000000000003E-002   -0.20175136902953450     
   9.7875000000000004E-002   -0.11270864446046153     
   9.8250000000000004E-002    -3.5483961227444238E-002
   9.8625000000000004E-002     2.9796561198815796E-002
   9.9000000000000005E-002     8.4674491521401440E-002
   9.9375000000000005E-002    0.13175646719343123     
   9.9750000000000005E-002    0.17418052998345224     
  0.10012500000000001         0.21472135525277927     
  0.10050000000000001         0.25489202178017378     
  0.10087500000000001         0.29508036560545192     
  0.10125000000000001         0.33357051444862029     
  0.10162500000000001         0.36743367481549583     
  0.10200000000000001         0.39296076132491720     
  0.10237500000000001         0.40620930934392363     
  0.10275000000000001         0.40409225326239029     
  0.10312500000000001         0.38520552289743826     
  0.10350000000000001         0.34993092791384273     
  0.10387500000000001         0.30095709978326224     
  0.10425000000000001         0.24271034194974944     
  0.10462500000000001         0.18079965917324681     
  0.10500000000000001         0.12140766233784178     
  0.10537500000000001          7.0281281846042765E-002
  0.10575000000000001          3.2011533204727438E-002
  0.10612500000000001          9.4017579723806033E-003
  0.10650000000000001          3.4145613391434460E-003
  0.10687500000000001          1.2749939850896022E-002
  0.10725000000000001          3.4199580992530815E-002
  0.10762500000000001          6.3197644039554024E-002
  0.10800000000000001          9.4155287510707314E-002
  0.10837500000000001         0.12124749863042980     
  0.10875000000000001         0.13906294675749764     
  0.10912500000000000         0.14336075359614892     
  0.10950000000000000         0.13151850064359671     
  0.10987500000000000         0.10313980409623641     
  0.11025000000000000          6.0100492377108350E-002
  0.11062500000000001          6.2539871359179044E-003
  0.11100000000000000         -5.2585011645652990E-002
  0.11137500000000002        -0.10986282339542580     
  0.11175000000000000        -0.15897907494636049     
  0.11212500000000002        -0.19428544800903524     
  0.11250000000000000        -0.21203855542411984     
  0.11287500000000002        -0.21110367991409723     
  0.11325000000000000        -0.19293497848995095     
  0.11362500000000002        -0.16169619393044099     
  0.11400000000000000        -0.12343372653046984     
  0.11437500000000002         -8.5011796951972834E-002
  0.11475000000000000         -5.3271967751462590E-002
  0.11512500000000002         -3.3653113997431872E-002
  0.11550000000000001         -2.9491733403199855E-002
  0.11587500000000002         -4.1588570799319824E-002
  0.11625000000000001         -6.7966913826394582E-002
  0.11662500000000002        -0.10456448658994288     
  0.11700000000000001        -0.14582793946093198     
  0.11737499999999999        -0.18563830761690114     
  0.11775000000000001        -0.21835667312593832     
  0.11812499999999999        -0.23963452868831953     
  0.11850000000000001        -0.24661008701692627     
  0.11887499999999999        -0.23848238114658055     
  0.11925000000000001        -0.21612229166303215     
  0.11962500000000000        -0.18137153885485960     
  0.12000000000000001        -0.13725121392647843     
  0.12037500000000000         -8.6912084483755092E-002
  0.12075000000000001         -3.3393457472058657E-002
  0.12112500000000000          2.0109429406573454E-002
  0.12150000000000001          7.0500756308725210E-002
  0.12187500000000000         0.11454029750356620     
  0.12225000000000001         0.14866823821540959     
  0.12262500000000000         0.16924316477467960     
  0.12300000000000001         0.17276998442481076     
  0.12337500000000000         0.15711814324519052     
  0.12375000000000001         0.12215117641194302     
  0.12412500000000000          7.0799240152626675E-002
  0.12450000000000001          1.0279008199402417E-002
  0.12487500000000000         -4.8751821773645704E-002
  0.12525000000000003         -9.2461117695876505E-002
  0.12562499999999999        -0.10617214827453481     
  0.12600000000000000         -7.7187037494295785E-002
  0.12637500000000002          1.9683776142225273E-003
  0.12675000000000003         0.13042787244254783     
  0.12712499999999999         0.29718822651140059     
  0.12750000000000000         0.48070464444740113     
  0.12787500000000002         0.65099231767004440     
  0.12825000000000003         0.77338525330049102     
  0.12862499999999999         0.81479400239486188     
  0.12900000000000000         0.74960536617658491     
  0.12937500000000002         0.56593746658300281     
  0.12975000000000003         0.26998218055684797     
  0.13012499999999999        -0.11285452249376737     
  0.13050000000000000        -0.53961449414966545     
  0.13087500000000002        -0.95490561188598710     
  0.13125000000000003         -1.2988258862763224     
  0.13162499999999999         -1.5156234215322102     
  0.13200000000000001         -1.5629136823237921     
  0.13237500000000002         -1.4185074761468623     
  0.13275000000000003         -1.0848652826723466     
  0.13312499999999999        -0.58944797559097761     
  0.13350000000000001          1.8237248517527505E-002
  0.13387500000000002         0.67290046045421459     
  0.13424999999999998          1.3018789598256697     
  0.13462499999999999          1.8342551956103157     
  0.13500000000000001          2.2097827275495296     
  0.13537500000000002          2.3852422198050767     
  0.13574999999999998          2.3394540276940967     
  0.13612500000000000          2.0745352220247488     
  0.13650000000000001          1.6146117419468924     
  0.13687500000000002          1.0023490305541598     
  0.13724999999999998         0.29305421154909883     
  0.13762500000000000        -0.45087846752206318     
  0.13800000000000001         -1.1670225202389055     
  0.13837500000000003         -1.7983927020361503     
  0.13874999999999998         -2.2981900007778413     
  0.13912500000000000         -2.6329972845901342     
  0.13950000000000001         -2.7843178694918791     
  0.13987500000000003         -2.7487683164718479     
  0.14024999999999999         -2.5370807849144414     
  0.14062500000000000         -2.1713834858338128     
  0.14100000000000001         -1.6829629188742103     
  0.14137500000000003         -1.1091925059729721     
  0.14174999999999999        -0.48949531455163253     
  0.14212500000000000         0.13620906227943852     
  0.14250000000000002         0.73104219405758730     
  0.14287500000000003          1.2630043267565205     
  0.14324999999999999          1.7058105010238616     
  0.14362500000000000          2.0405970230355752     
  0.14400000000000002          2.2559997485874703     
  0.14437500000000003          2.3476567171923488     
  0.14474999999999999          2.3182085146236342     
  0.14512500000000000          2.1765104374756801     
  0.14550000000000002          1.9358709992680774     
  0.14587500000000003          1.6138725710229456     
  0.14624999999999999          1.2305600872351272     
  0.14662500000000001         0.80694141756755933     
  0.14700000000000002         0.36502586188384090     
  0.14737500000000003         -7.4557546938085473E-002
  0.14774999999999999        -0.49259531439309656     
  0.14812500000000001        -0.87206835533061478     
  0.14850000000000002         -1.1990573212513929     
  0.14887500000000004         -1.4626182073579046     
  0.14924999999999999         -1.6555579087751693     
  0.14962500000000001         -1.7735444628822703     
  0.15000000000000002         -1.8160613893012796     
  0.15037499999999998         -1.7853581464202797     
  0.15075000000000000         -1.6861207296257097     
  0.15112500000000001         -1.5258270751431635     
  0.15150000000000002         -1.3131956142729557     
  0.15187499999999998         -1.0585780322566165     
  0.15225000000000000        -0.77309927388494648     
  0.15262500000000001        -0.46822084494743788     
  0.15300000000000002        -0.15548076510055298     
  0.15337499999999998         0.15417247334122641     
  0.15375000000000000         0.45038277123335702     
  0.15412500000000001         0.72394358622895716     
  0.15450000000000003         0.96693693357283328     
  0.15487499999999998          1.1726927109113969     
  0.15525000000000000          1.3362637142748679     
  0.15562500000000001          1.4542168491760998     
  0.15600000000000003          1.5245096745486746     
  0.15637499999999999          1.5468404043557540     
  0.15675000000000000          1.5224643727519480     
  0.15712500000000001          1.4533821390342774     
  0.15750000000000003          1.3434882666677126     
  0.15787499999999999          1.1975391357575713     
  0.15825000000000000          1.0205867747356554     
  0.15862500000000002         0.81898265985491281     
  0.15900000000000003         0.59935306092431839     
  0.15937499999999999         0.36800648056944230     
  0.15975000000000000         0.13199098416904653     
  0.16012500000000002        -0.10243678460826144     
  0.16050000000000003        -0.32902469704560255     
  0.16087499999999999        -0.54217144825312724     
  0.16125000000000000        -0.73684955702653587     
  0.16162500000000002        -0.90881875066076834     
  0.16200000000000003         -1.0545601322790472     
  0.16237499999999999         -1.1713794914179987     
  0.16275000000000001         -1.2575295852921862     
  0.16312500000000002         -1.3119885766579031     
  0.16350000000000003         -1.3345985740671689     
  0.16387499999999999         -1.3258463036681467     
  0.16425000000000001         -1.2870935269347663     
  0.16462500000000002         -1.2200730036788787     
  0.16500000000000004         -1.1271513049060633     
  0.16537499999999999         -1.0114229763706668     
  0.16575000000000001        -0.87580982539232666     
  0.16612500000000002        -0.72406924251880955     
  0.16650000000000004        -0.56009428335630362     
  0.16687500000000000        -0.38770297204616977     
  0.16725000000000001        -0.21066948478726299     
  0.16762500000000002         -3.3584052631276062E-002
  0.16799999999999998         0.14033673588914475     
  0.16837500000000000         0.30731317187895391     
  0.16875000000000001         0.46364903298293814     
  0.16912500000000003         0.60678227680815855     
  0.16949999999999998         0.73391197746309977     
  0.16987500000000000         0.84272751217326203     
  0.17025000000000001         0.93173438580094281     
  0.17062500000000003         0.99977630765562142     
  0.17099999999999999          1.0459838191335231     
  0.17137500000000000          1.0704266412271897     
  0.17175000000000001          1.0732895933205686     
  0.17212500000000003          1.0552389042931958     
  0.17249999999999999          1.0175513936262426     
  0.17287500000000000         0.96143874837761645     
  0.17325000000000002         0.88886970433969392     
  0.17362500000000003         0.80159922529650074     
  0.17399999999999999         0.70179949419243848     
  0.17437500000000000         0.59194677339391322     
  0.17475000000000002         0.47420675907305820     
  0.17512500000000003         0.35105311518645432     
  0.17549999999999999         0.22495540130991654     
  0.17587500000000000          9.8272414760134819E-002
  0.17625000000000002         -2.6758652048863629E-002
  0.17662500000000003        -0.14795865292197874     
  0.17699999999999999        -0.26328987125348324     
  0.17737500000000000        -0.37075076695078901     
  0.17775000000000002        -0.46878310761970221     
  0.17812500000000003        -0.55577615398933689     
  0.17849999999999999        -0.63054967669153461     
  0.17887500000000001        -0.69209722455831946     
  0.17925000000000002        -0.73965597532970695     
  0.17962500000000003        -0.77298965670023012     
  0.17999999999999999        -0.79182389477225557     
  0.18037500000000001        -0.79639610979239461     
  0.18075000000000002        -0.78717376289706276     
  0.18112500000000004        -0.76471468070483617     
  0.18149999999999999        -0.73008316756234448     
  0.18187500000000001        -0.68416641317926252     
  0.18225000000000002        -0.62837741599707098     
  0.18262500000000004        -0.56396588577158058     
  0.18300000000000000        -0.49228724288135262     
  0.18337500000000001        -0.41499333975185532     
  0.18375000000000002        -0.33331280949948716     
  0.18412499999999998        -0.24870946838626956     
  0.18450000000000000        -0.16273861999888906     
  0.18487500000000001         -7.6498148429472002E-002
  0.18525000000000003          8.4908964960962452E-003
  0.18562499999999998          9.1074518041308616E-002
  0.18600000000000000         0.17001350640936108     
  0.18637500000000001         0.24410660929002881     
  0.18675000000000003         0.31238147955567719     
  0.18712499999999999         0.37391809364900008     
  0.18750000000000000         0.42770698505229165     
  0.18787500000000001         0.47323492140908141     
  0.18825000000000003         0.50993796240456213     
  0.18862499999999999         0.53733477979880795     
  0.18900000000000000         0.55532777752921891     