  -1.4999999999999999E-002     0.0000000000000000     
  -1.4624999999999999E-002     0.0000000000000000     
  -1.4249999999999999E-002     0.0000000000000000     
  -1.3874999999999998E-002     0.0000000000000000     
  -1.3500000000000000E-002     0.0000000000000000     
  -1.3125000000000000E-002     0.0000000000000000     
  -1.2749999999999999E-002     0.0000000000000000     
  -1.2374999999999999E-002     0.0000000000000000     
  -1.2000000000000000E-002     0.0000000000000000     
  -1.1625000000000000E-002     0.0000000000000000     
  -1.1250000000000000E-002     0.0000000000000000     
  -1.0874999999999999E-002     0.0000000000000000     
  -1.0499999999999999E-002     0.0000000000000000     
  -1.0124999999999999E-002     0.0000000000000000     
  -9.7499999999999983E-003     0.0000000000000000     
  -9.3749999999999979E-003     0.0000000000000000     
  -8.9999999999999993E-003     0.0000000000000000     
  -8.6249999999999990E-003     0.0000000000000000     
  -8.2500000000000004E-003     0.0000000000000000     
  -7.8750000000000001E-003     0.0000000000000000     
  -7.4999999999999989E-003     0.0000000000000000     
  -7.1249999999999994E-003     0.0000000000000000     
  -6.7499999999999991E-003     0.0000000000000000     
  -6.3749999999999987E-003     0.0000000000000000     
  -5.9999999999999984E-003     0.0000000000000000     
  -5.6249999999999998E-003     0.0000000000000000     
  -5.2499999999999995E-003     0.0000000000000000     
  -4.8749999999999991E-003     0.0000000000000000     
  -4.4999999999999988E-003     0.0000000000000000     
  -4.1249999999999985E-003     0.0000000000000000     
  -3.7499999999999981E-003     0.0000000000000000     
  -3.3749999999999995E-003     0.0000000000000000     
  -2.9999999999999992E-003     0.0000000000000000     
  -2.6249999999999989E-003     0.0000000000000000     
  -2.2499999999999985E-003     0.0000000000000000     
  -1.8749999999999982E-003     0.0000000000000000     
  -1.4999999999999996E-003     0.0000000000000000     
  -1.1249999999999993E-003     0.0000000000000000     
  -7.4999999999999893E-004     0.0000000000000000     
  -3.7499999999999860E-004     0.0000000000000000     
   1.7347234759768071E-018     0.0000000000000000     
   3.7500000000000207E-004     0.0000000000000000     
   7.5000000000000067E-004     0.0000000000000000     
   1.1250000000000010E-003     0.0000000000000000     
   1.5000000000000013E-003     0.0000000000000000     
   1.8750000000000017E-003     0.0000000000000000     
   2.2500000000000020E-003     0.0000000000000000     
   2.6250000000000023E-003     0.0000000000000000     
   3.0000000000000027E-003     6.8856995024892089E-037
   3.3750000000000030E-003     2.5334842024553021E-035
   3.7499999999999999E-003     3.2773455718806154E-034
   4.1250000000000002E-003     2.3194292171927780E-033
   4.5000000000000005E-003     7.5138160136515429E-033
   4.8750000000000009E-003    -2.0425975660075572E-031
   5.2500000000000012E-003    -1.0205389487088307E-030
   5.6250000000000015E-003     8.3467982581485984E-030
   6.0000000000000019E-003     1.7777038573867855E-029
   6.3750000000000022E-003    -2.9335449511901388E-028
   6.7500000000000025E-003     9.6473058964182026E-028
   7.1250000000000029E-003     3.5428787828679547E-028
   7.5000000000000032E-003    -1.7409667203277445E-026
   7.8750000000000001E-003     9.4376627120041423E-026
   8.2500000000000004E-003    -3.7448816163698457E-025
   8.6250000000000007E-003     1.9865921186933230E-024
   9.0000000000000011E-003     9.2261451395022687E-024
   9.3750000000000014E-003     3.4456464955599880E-023
   9.7500000000000017E-003     1.3040149988431827E-022
   1.0125000000000002E-002     4.9227529006668947E-022
   1.0500000000000002E-002     1.8272275196368025E-021
   1.0875000000000003E-002     6.6563896076218513E-021
   1.1250000000000003E-002     2.3813501631051751E-020
   1.1625000000000003E-002     8.3644929093483542E-020
   1.2000000000000000E-002     2.8846777026580786E-019
   1.2375000000000001E-002     9.7674322964114598E-019
   1.2750000000000001E-002     3.2470155496039287E-018
   1.3125000000000001E-002     1.0597473453089735E-017
   1.3500000000000002E-002     3.3956415556611718E-017
   1.3875000000000002E-002     1.0681640557211480E-016
   1.4250000000000002E-002     3.2986672357186650E-016
   1.4625000000000003E-002     1.0000314876818426E-015
   1.5000000000000003E-002     2.9761330988140541E-015
   1.5375000000000003E-002     8.6945198425599569E-015
   1.5750000000000004E-002     2.4933299759048457E-014
   1.6125000000000000E-002     7.0184364641184863E-014
   1.6500000000000001E-002     1.9391691560336677E-013
   1.6875000000000001E-002     5.2588700663132701E-013
   1.7250000000000001E-002     1.3997592368040794E-012
   1.7625000000000002E-002     3.6566329990316171E-012
   1.8000000000000002E-002     9.3747963889205251E-012
   1.8375000000000002E-002     2.3587091878982476E-011
   1.8750000000000003E-002     5.8237021385524847E-011
   1.9125000000000003E-002     1.4109587261735648E-010
   1.9500000000000003E-002     3.3542816859175609E-010
   1.9875000000000004E-002     7.8239746315506906E-010
   2.0250000000000004E-002     1.7904840864467568E-009
   2.0625000000000004E-002     4.0198150659720308E-009
   2.1000000000000005E-002     8.8531092996903665E-009
   2.1375000000000005E-002     1.9125474331125580E-008
   2.1750000000000005E-002     4.0524382442171430E-008
   2.2125000000000006E-002     8.4211282205878746E-008
   2.2499999999999999E-002     1.7160471215973826E-007
   2.2875000000000000E-002     3.4288454015115765E-007
   2.3250000000000000E-002     6.7169832566386760E-007
   2.3625000000000000E-002     1.2898783384227873E-006
   2.4000000000000000E-002     2.4278172612811562E-006
   2.4375000000000001E-002     4.4781504729383461E-006
   2.4750000000000001E-002     8.0932863242535644E-006
   2.5125000000000001E-002     1.4328672979831702E-005
   2.5500000000000002E-002     2.4845480663998129E-005
   2.5875000000000002E-002     4.2182966710054167E-005
   2.6250000000000002E-002     7.0105851766899302E-005
   2.6625000000000003E-002     1.1401300911491222E-004
   2.7000000000000003E-002     1.8137555804835964E-004
   2.7375000000000003E-002     2.8212219248967643E-004
   2.7750000000000004E-002     4.2885432012350171E-004
   2.8125000000000004E-002     6.3669898513255929E-004
   2.8500000000000004E-002     9.2258869487136293E-004
   2.8875000000000005E-002     1.3036189386694498E-003
   2.9250000000000005E-002     1.7943435730198133E-003
   2.9625000000000005E-002     2.4027237999476279E-003
   3.0000000000000006E-002     3.1246488832279689E-003
   3.0375000000000006E-002     3.9378558803373227E-003
   3.0750000000000000E-002     4.7949118036059585E-003
   3.1125000000000000E-002     5.6177639712889707E-003
   3.1500000000000000E-002     6.2944673334416421E-003
   3.1875000000000001E-002     6.6803489519677260E-003
   3.2250000000000001E-002     6.6054637659858795E-003
   3.2625000000000001E-002     5.8904162652654145E-003
   3.3000000000000002E-002     4.3680135432903793E-003
   3.3375000000000002E-002     1.9154303833299365E-003
   3.3750000000000002E-002    -1.5147495169218525E-003
   3.4125000000000003E-002    -5.8641939510869628E-003
   3.4500000000000003E-002    -1.0941802999648514E-002
   3.4875000000000003E-002    -1.6425883180091236E-002
   3.5250000000000004E-002    -2.1869854658548127E-002
   3.5625000000000004E-002    -2.6755260183882253E-002
   3.6000000000000004E-002    -3.0549454608456095E-002
   3.6375000000000005E-002    -3.2795548110652967E-002
   3.6750000000000005E-002    -3.3203139098497481E-002
   3.7125000000000005E-002    -3.1726480593036122E-002
   3.7500000000000006E-002    -2.8620854504385430E-002
   3.7875000000000006E-002    -2.4444352878130356E-002
   3.8250000000000006E-002    -2.0018419260386208E-002
   3.8625000000000007E-002    -1.6311090608596403E-002
   3.9000000000000000E-002    -1.4288804168159520E-002
   3.9375000000000000E-002    -1.4730862828633697E-002
   3.9750000000000001E-002    -1.8046965862413500E-002
   4.0125000000000001E-002    -2.4127296783038508E-002
   4.0500000000000001E-002    -3.2242193915507394E-002
   4.0875000000000002E-002    -4.1076717441609858E-002
   4.1250000000000002E-002    -4.8787717116996865E-002
   4.1625000000000002E-002    -5.3243532841130439E-002
   4.2000000000000003E-002    -5.2246340508168773E-002
   4.2375000000000003E-002    -4.3886258596942347E-002
   4.2750000000000003E-002    -2.6809947576319222E-002
   4.3125000000000004E-002    -5.1898405482326410E-004
   4.3500000000000004E-002     3.4490592666955200E-002
   4.3875000000000004E-002     7.6623342691426732E-002
   4.4250000000000005E-002    0.12324164441972341     
   4.4625000000000005E-002    0.17087043534762658     
   4.5000000000000005E-002    0.21542803516015280     
   4.5375000000000006E-002    0.25264390450214946     
   4.5750000000000006E-002    0.27840794804570790     
   4.6125000000000006E-002    0.28921684272307779     
   4.6500000000000007E-002    0.28257283792511134     
   4.6875000000000007E-002    0.25726519037897255     
   4.7250000000000000E-002    0.21362919402071878     
   4.7625000000000001E-002    0.15362622493314690     
   4.8000000000000001E-002     8.0773956498320684E-002
   4.8375000000000001E-002    -5.6844287769641788E-006
   4.8750000000000002E-002    -8.2795627530090843E-002
   4.9125000000000002E-002   -0.16119993113960285     
   4.9500000000000002E-002   -0.22886885061455997     
   4.9875000000000003E-002   -0.28021969031890748     
   5.0250000000000003E-002   -0.31100788223292775     
   5.0625000000000003E-002   -0.31883928402068518     
   5.1000000000000004E-002   -0.30356481210756481     
   5.1375000000000004E-002   -0.26729711775677389     
   5.1750000000000004E-002   -0.21431312247029727     
   5.2125000000000005E-002   -0.15057858913577651     
   5.2500000000000005E-002    -8.3119417061898390E-002
   5.2875000000000005E-002    -1.9146445572289686E-002
   5.3250000000000006E-002     3.4720025453501592E-002
   5.3625000000000006E-002     7.3324254142702244E-002
   5.4000000000000006E-002     9.3526148332331027E-002
   5.4375000000000007E-002     9.4499268245606977E-002
   5.4750000000000007E-002     7.7836055141603702E-002
   5.5125000000000007E-002     4.7123679919001335E-002
   5.5500000000000008E-002     7.4328887163583046E-003
   5.5875000000000008E-002    -3.5447691090574496E-002
   5.6250000000000008E-002    -7.5852098476212410E-002
   5.6625000000000009E-002   -0.10890063089681390     
   5.7000000000000009E-002   -0.13115457881207782     
   5.7375000000000009E-002   -0.14080664726276287     
   5.7750000000000010E-002   -0.13781412618227551     
   5.8125000000000010E-002   -0.12357244530398770     
   5.8500000000000010E-002   -0.10049068869475294     
   5.8875000000000011E-002    -7.1467636967595699E-002
   5.9250000000000011E-002    -3.9303771106325311E-002
   5.9624999999999997E-002    -6.2469417568237484E-003
   5.9999999999999998E-002     2.6301508792022137E-002
   6.0374999999999998E-002     5.7805189076384988E-002
   6.0749999999999998E-002     8.8479875855820678E-002
   6.1124999999999999E-002    0.11886981496986981     
   6.1499999999999999E-002    0.14947657828883837     
   6.1874999999999999E-002    0.18021440328906702     
   6.2250000000000000E-002    0.21013539895375344     
   6.2625000000000000E-002    0.23719253574834354     
   6.3000000000000000E-002    0.25850407566839184     
   6.3375000000000001E-002    0.27062033595589008     
   6.3750000000000001E-002    0.27016005952827038     
   6.4125000000000001E-002    0.25462584189797360     
   6.4500000000000002E-002    0.22291880242008633     
   6.4875000000000002E-002    0.17596695199510010     
   6.5250000000000002E-002    0.11677713370567730     
   6.5625000000000003E-002     5.0209190652260399E-002
   6.6000000000000003E-002    -1.7636503199894321E-002
   6.6375000000000003E-002    -8.0448295874697706E-002
   6.6750000000000004E-002   -0.13264691324032318     
   6.7125000000000004E-002   -0.17048566646163488     
   6.7500000000000004E-002   -0.19275591333435049     
   6.7875000000000005E-002   -0.20093645776452806     
   6.8250000000000005E-002   -0.19904440327121498     
   6.8625000000000005E-002   -0.19279791160960258     
   6.9000000000000006E-002   -0.18847826840283094     
   6.9375000000000006E-002   -0.19163751286862102     
   6.9750000000000006E-002   -0.20594474350698733     
   7.0125000000000007E-002   -0.23216345668730709     
   7.0500000000000007E-002   -0.26796483024484941     
   7.0875000000000007E-002   -0.30808114750408044     
   7.1250000000000008E-002   -0.34509092103946531     
   7.1625000000000008E-002   -0.37076809250323489     
   7.2000000000000008E-002   -0.37745094381613065     
   7.2375000000000009E-002   -0.35950146438375130     
   7.2750000000000009E-002   -0.31431782253619933     
   7.3125000000000009E-002   -0.24284868474376498     
   7.3500000000000010E-002   -0.14947525515716964     
   7.3875000000000010E-002    -4.1233393322687717E-002
   7.4250000000000010E-002     7.3404673981859681E-002
   7.4625000000000011E-002    0.18610936307627146     
   7.5000000000000011E-002    0.28998636488343082     
   7.5375000000000011E-002    0.38062189369962718     
   7.5750000000000012E-002    0.45679977535210736     
   7.6124999999999998E-002    0.51993600627857561     
   7.6499999999999999E-002    0.57355445956886020     
   7.6874999999999999E-002    0.62179808136861570     
   7.7249999999999999E-002    0.66799447615583496     
   7.7625000000000000E-002    0.71334737202323262     
   7.8000000000000000E-002    0.75591136149493199     
   7.8375000000000000E-002    0.79028904514474263     
   7.8750000000000001E-002    0.80819308902655362     
   7.9125000000000001E-002    0.79943255779420785     
   7.9500000000000001E-002    0.75355379974075642     
   7.9875000000000002E-002    0.66177697276618308     
   8.0250000000000002E-002    0.51886034099675427     
   8.0625000000000002E-002    0.32444639632196748     
   8.1000000000000003E-002     8.4234769473399584E-002
   8.1375000000000003E-002   -0.19006899265134081     
   8.1750000000000003E-002   -0.48129729604158439     
   8.2125000000000004E-002   -0.76812836755917724     
   8.2500000000000004E-002    -1.0271563040914353     
   8.2875000000000004E-002    -1.2354629064412368     
   8.3250000000000005E-002    -1.3730536568511695     
   8.3625000000000005E-002    -1.4253935604677843     
   8.4000000000000005E-002    -1.3854120668010359     
   8.4375000000000006E-002    -1.2547905165504620     
   8.4750000000000006E-002    -1.0440723757165897     
   8.5125000000000006E-002   -0.77217260720841774     
   8.5500000000000007E-002   -0.46407741763511912     
   8.5875000000000007E-002   -0.14855957051959318     
   8.6250000000000007E-002    0.14517777789403374     
   8.6625000000000008E-002    0.39124254056849123     
   8.7000000000000008E-002    0.56952934164170299     
   8.7375000000000008E-002    0.66853380312025845     
   8.7750000000000009E-002    0.68599418062051065     
   8.8125000000000009E-002    0.62907222633779392     
   8.8500000000000009E-002    0.51296042664279695     
   8.8875000000000010E-002    0.35811133751954449     
   8.9250000000000010E-002    0.18767633046117338     
   8.9625000000000010E-002     2.4072565923763112E-002
   9.0000000000000011E-002   -0.11389555023978309     
   9.0375000000000011E-002   -0.21278043946383285     
   9.0750000000000011E-002   -0.26589953092616081     
   9.1125000000000012E-002   -0.27319353906092747     
   9.1500000000000012E-002   -0.24011010445881426     
   9.1875000000000012E-002   -0.17632149600325556     
   9.2250000000000013E-002    -9.3445761317974774E-002
   9.2624999999999999E-002    -3.1459499151242909E-003
   9.2999999999999999E-002     8.4140349157484084E-002
   9.3375000000000000E-002    0.16083528866072724     
   9.3750000000000000E-002    0.22224702350782499     
   9.4125000000000000E-002    0.26653910829462346     
   9.4500000000000001E-002    0.29442466880165841     
   9.4875000000000001E-002    0.30818964910049595     
   9.5250000000000001E-002    0.31097979810752119     
   9.5625000000000002E-002    0.30620567399973353     
   9.6000000000000002E-002    0.29682657384470645     
   9.6375000000000002E-002    0.28533488108886240     
   9.6750000000000003E-002    0.27359331110149132     
   9.7125000000000003E-002    0.26265720521005320     
   9.7500000000000003E-002    0.25294059968507931     
   9.7875000000000004E-002    0.24400960240363101     
   9.8250000000000004E-002    0.23449116160357397     
   9.8625000000000004E-002    0.22202865698511637     
   9.9000000000000005E-002    0.20295152481749326     
   9.9375000000000005E-002    0.17309463619049020     
   9.9750000000000005E-002    0.12780417093765783     
  0.10012500000000001          6.3515926061592176E-002
  0.10050000000000001         -2.1199626297365104E-002
  0.10087500000000001        -0.12429219453022738     
  0.10125000000000001        -0.23871400118436953     
  0.10162500000000001        -0.35248028660015485     
  0.10200000000000001        -0.44888607587091345     
  0.10237500000000001        -0.50848779105849107     
  0.10275000000000001        -0.51225883012608397     
  0.10312500000000001        -0.44520831627060398     
  0.10350000000000001        -0.30061677427813471     
  0.10387500000000001         -8.3474807464577250E-002
  0.10425000000000001         0.18793502033345821     
  0.10462500000000001         0.48200983590595392     
  0.10500000000000001         0.75722478645361857     
  0.10537500000000001         0.96699674493732191     
  0.10575000000000001          1.0670229547567149     
  0.10612500000000001          1.0228646969140329     
  0.10650000000000001         0.81674399538489384     
  0.10687500000000001         0.45221868846836966     
  0.10725000000000001         -4.3784809793034896E-002
  0.10762500000000001        -0.62352770573071892     
  0.10800000000000001         -1.2234538340955134     
  0.10837500000000001         -1.7721637259015719     
  0.10875000000000001         -2.2006010794461979     
  0.10912500000000000         -2.4506742121902239     
  0.10950000000000000         -2.4833218435091053     
  0.10987500000000000         -2.2841954839260761     
  0.11025000000000000         -1.8645253213924495     
  0.11062500000000001         -1.2597988789564250     
  0.11100000000000000        -0.52524739716854185     
  0.11137500000000002         0.27149609767904348     
  0.11175000000000000          1.0584058579194808     
  0.11212500000000002          1.7664353290208064     
  0.11250000000000000          2.3371432654566684     
  0.11287500000000002          2.7270537950669986     
  0.11325000000000000          2.9111471370923243     
  0.11362500000000002          2.8833579735585166     
  0.11400000000000000          2.6554246009855409     
  0.11437500000000002          2.2540196900947107     
  0.11475000000000000          1.7171069584853513     
  0.11512500000000002          1.0894328448464492     
  0.11550000000000001         0.41849270507461345     
  0.11587500000000002        -0.24953180902255134     
  0.11625000000000001        -0.87308206938459509     
  0.11662500000000002         -1.4170538464470153     
  0.11700000000000001         -1.8548915440673723     
  0.11737499999999999         -2.1687368950805106     
  0.11775000000000001         -2.3497525733904325     
  0.11812499999999999         -2.3974530849349844     
  0.11850000000000001         -2.3180961119879182     
  0.11887499999999999         -2.1247285517557484     
  0.11925000000000001         -1.8343517609576883     
  0.11962500000000000         -1.4674082067659469     
  0.12000000000000001         -1.0461834215065799     
  0.12037500000000000        -0.59331813823849666     
  0.12075000000000001        -0.13088844467178129     
  0.12112500000000000         0.32025064741746911     
  0.12150000000000001         0.74190461193889101     
  0.12187500000000000          1.1186825371750446     
  0.12225000000000001          1.4376108748889012     
  0.12262500000000000          1.6900456115353042     
  0.12300000000000001          1.8697473558986148     
  0.12337500000000000          1.9741958211484496     
  0.12375000000000001          2.0038864540590344     
  0.12412500000000000          1.9615549951904714     
  0.12450000000000001          1.8527855851999471     
  0.12487500000000000          1.6849568854757364     
  0.12525000000000003          1.4667060252340411     
  0.12562499999999999          1.2079761705986352     
  0.12600000000000000         0.91919874100459698     
  0.12637500000000002         0.61084051235026893     
  0.12675000000000003         0.29360157261025210     
  0.12712499999999999         -2.2654333577103003E-002
  0.12750000000000000        -0.32885704084544609     
  0.12787500000000002        -0.61643863391297049     
  0.12825000000000003        -0.87833895411930030     
  0.12862499999999999         -1.1085391437452747     
  0.12900000000000000         -1.3022364494850289     
  0.12937500000000002         -1.4558425238552375     
  0.12975000000000003         -1.5673224745219465     
  0.13012499999999999         -1.6354554302101816     
  0.13050000000000000         -1.6603366292088779     
  0.13087500000000002         -1.6433942737126257     
  0.13125000000000003         -1.5864244127477909     
  0.13162499999999999         -1.4926337942253385     
  0.13200000000000001         -1.3657793822826456     
  0.13237500000000002         -1.2101646407772790     
  0.13275000000000003         -1.0307378608838100     
  0.13312499999999999        -0.83274943872781104     
  0.13350000000000001        -0.62170412954184684     
  0.13387500000000002        -0.40317334094045321     
  0.13424999999999998        -0.18255128889248196     
  0.13462499999999999          3.4845557325878351E-002
  0.13500000000000001         0.24421153575224652     
  0.13537500000000002         0.44107016706378527     
  0.13574999999999998         0.62157246626128171     
  0.13612500000000000         0.78258757404134882     
  0.13650000000000001         0.92131160767814890     
  0.13687500000000002          1.0358929276423146     
  0.13724999999999998          1.1251908683738510     
  0.13762500000000000          1.1884030543419390     
  0.13800000000000001          1.2255466738650624     
  0.13837500000000003          1.2372545049558652     
  0.13874999999999998          1.2243716200887085     
  0.13912500000000000          1.1883205508057253     
  0.13950000000000001          1.1310112942009301     
  0.13987500000000003          1.0540985162433125     
  0.14024999999999999         0.96011218527232245     
  0.14062500000000000         0.85146748429502228     
  0.14100000000000001         0.73065450609951721     
  0.14137500000000003         0.60034991948519112     
  0.14174999999999999         0.46338324668302266     
  0.14212500000000000         0.32263500273207613     
  0.14250000000000002         0.18083486343331512     
  0.14287500000000003          4.0559558784683980E-002
  0.14324999999999999         -9.5447793963827632E-002
  0.14362500000000000        -0.22487023978189399     
  0.14400000000000002        -0.34556311135617113     
  0.14437500000000003        -0.45548308280262961     
  0.14474999999999999        -0.55319679142982281     
  0.14512500000000000        -0.63746103527788822     
  0.14550000000000002        -0.70705586187187919     
  0.14587500000000003        -0.76172652723968626     
  0.14624999999999999        -0.80122519544587512     
  0.14662500000000001        -0.82548097015896449     
  0.14700000000000002        -0.83505002111071924     
  0.14737500000000003        -0.83044887608707985     
  0.14774999999999999        -0.81245642641876259     
  0.14812500000000001        -0.78213758942840506     
  0.14850000000000002        -0.74043080860768951     
  0.14887500000000004        -0.68847439254255105     
  0.14924999999999999        -0.62753435377776734     
  0.14962500000000001        -0.55881250969820806     
  0.15000000000000002        -0.48371956975725250     
  0.15037499999999998        -0.40336029952870589     
  0.15075000000000000        -0.31930465315584022     
  0.15112500000000001        -0.23286938479214159     
  0.15150000000000002        -0.14529368200188553     
  0.15187499999999998         -5.8136174179012734E-002
  0.15225000000000000          2.7324017721660487E-002
  0.15262500000000001         0.10977060908187800     
  0.15300000000000002         0.18781141127098624     
  0.15337499999999998         0.26022248480185939     
  0.15375000000000000         0.32611155376677814     
  0.15412500000000001         0.38444528121673893     
  0.15450000000000003         0.43435586725877084     
  0.15487499999999998         0.47557470511582456     
  0.15525000000000000         0.50775099915929345     
  0.15562500000000001         0.53055802540798247     
  0.15600000000000003         0.54442720094119801     
  0.15637499999999999         0.54937611058535163     
  0.15675000000000000         0.54565221353295823     
  0.15712500000000001         0.53421876342555508     
  0.15750000000000003         0.51522931737133171     
  0.15787499999999999         0.48941074811386076     
  0.15825000000000000         0.45759643427607177     
  0.15862500000000002         0.42024026833698569     
  0.15900000000000003         0.37820448881545093     
  0.15937499999999999         0.33211640268443909     
  0.15975000000000000         0.28252719817423233     
  0.16012500000000002         0.23033691640291892     
  0.16050000000000003         0.17620147472600042     
  0.16087499999999999         0.12096688289088239     
  0.16125000000000000          6.5450723811132899E-002
  0.16162500000000002          1.0372516559357448E-002
  0.16200000000000003         -4.3076524984819675E-002
  0.16237499999999999         -9.4329835451499949E-002
  0.16275000000000001        -0.14248055730768000     
  0.16312500000000002        -0.18672864605034617     
  0.16350000000000003        -0.22663590652773169     
  0.16387499999999999        -0.26143155127259932     
  0.16425000000000001        -0.29092765790686093     
  0.16462500000000002        -0.31486813800633096     
  0.16500000000000004        -0.33306552010033430     
  0.16537499999999999        -0.34577498124867034     
  0.16575000000000001        -0.35288228743924688     
  0.16612500000000002        -0.35486246882655759     
  0.16650000000000004        -0.35208262077250640     
  0.16687500000000000        -0.34462832762709172     
  0.16725000000000001        -0.33309671990039014     
  0.16762500000000002        -0.31763498469792861     
  0.16799999999999998        -0.29871172313036776     
  0.16837500000000000        -0.27652920460325231     
  0.16875000000000001        -0.25126059330769340     
  0.16912500000000003        -0.22343499310666759     
  0.16949999999999998        -0.19313863939715972     
  0.16987500000000000        -0.16091994017987063     
  0.17025000000000001        -0.12719030530402248     
  0.17062500000000003         -9.2126511671057260E-002
  0.17099999999999999         -5.6758583931481324E-002
  0.17137500000000000         -2.1312074777225753E-002
  0.17175000000000001          1.3547200431596129E-002
  0.17212500000000003          4.6973861899487483E-002
  0.17249999999999999          7.8867376759112706E-002
  0.17287500000000000         0.10820787922019465     
  0.17325000000000002         0.13465441331681832     
  0.17362500000000003         0.15835973277933718     
  0.17399999999999999         0.17841652487898829     
  0.17437500000000000         0.19524209302161005     
  0.17475000000000002         0.20869039820315671     
  0.17512500000000003         0.21865143955380523     
  0.17549999999999999         0.22562315519692483     
  0.17587500000000000         0.22948800983712342     
  0.17625000000000002         0.23040652814023149     
  0.17662500000000003         0.22865555798806592     
  0.17699999999999999         0.22424798950320651     
  0.17737500000000000         0.21743087306833231     
  0.17775000000000002         0.20814855210746341     
  0.17812500000000003         0.19650129402933336     
  0.17849999999999999         0.18263766043102217     
  0.17887500000000001         0.16652165118934825     
  0.17925000000000002         0.14843738830291145     
  0.17962500000000003         0.12833956083115117     
  0.17999999999999999         0.10660833334161819     
  0.18037500000000001          8.3778216495734026E-002
  0.18075000000000002          5.9976628310296237E-002
  0.18112500000000004          3.6014308278374145E-002
  0.18149999999999999          1.2206704401114488E-002
  0.18187500000000001         -1.0759609362840178E-002
  0.18225000000000002         -3.2452626450460806E-002
  0.18262500000000004         -5.2651187599349711E-002
  0.18300000000000000         -7.1075137369858377E-002
  0.18337500000000001         -8.7577449170872068E-002
  0.18375000000000002        -0.10219519722343604     
  0.18412499999999998        -0.11483938042464858     
  0.18450000000000000        -0.12566364194611895     
  0.18487500000000001        -0.13477541131545329     
  0.18525000000000003        -0.14194677834456315     
  0.18562499999999998        -0.14721257838965413     
  0.18600000000000000        -0.15082457243776909     
  0.18637500000000001        -0.15249051965775956     
  0.18675000000000003        -0.15234465166281075     
  0.18712499999999999        -0.15046291904482217     
  0.18750000000000000        -0.14674589449896694     
  0.18787500000000001        -0.14143139889662096     
  0.18825000000000003        -0.13452996404719725     
  0.18862499999999999        -0.12595883041840183     
  0.18900000000000000        -0.11579635254867482     