  -1.4999999999999999E-002     0.0000000000000000     
  -1.4624999999999999E-002     0.0000000000000000     
  -1.4249999999999999E-002     0.0000000000000000     
  -1.3874999999999998E-002     0.0000000000000000     
  -1.3500000000000000E-002     0.0000000000000000     
  -1.3125000000000000E-002     0.0000000000000000     
  -1.2749999999999999E-002     0.0000000000000000     
  -1.2374999999999999E-002     0.0000000000000000     
  -1.2000000000000000E-002     0.0000000000000000     
  -1.1625000000000000E-002     0.0000000000000000     
  -1.1250000000000000E-002     0.0000000000000000     
  -1.0874999999999999E-002     0.0000000000000000     
  -1.0499999999999999E-002     0.0000000000000000     
  -1.0124999999999999E-002     0.0000000000000000     
  -9.7499999999999983E-003     0.0000000000000000     
  -9.3749999999999979E-003     0.0000000000000000     
  -8.9999999999999993E-003     0.0000000000000000     
  -8.6249999999999990E-003     0.0000000000000000     
  -8.2500000000000004E-003     0.0000000000000000     
  -7.8750000000000001E-003     0.0000000000000000     
  -7.4999999999999989E-003     0.0000000000000000     
  -7.1249999999999994E-003     0.0000000000000000     
  -6.7499999999999991E-003     0.0000000000000000     
  -6.3749999999999987E-003     0.0000000000000000     
  -5.9999999999999984E-003     0.0000000000000000     
  -5.6249999999999998E-003     0.0000000000000000     
  -5.2499999999999995E-003     0.0000000000000000     
  -4.8749999999999991E-003     0.0000000000000000     
  -4.4999999999999988E-003     0.0000000000000000     
  -4.1249999999999985E-003     0.0000000000000000     
  -3.7499999999999981E-003     0.0000000000000000     
  -3.3749999999999995E-003     0.0000000000000000     
  -2.9999999999999992E-003     0.0000000000000000     
  -2.6249999999999989E-003     0.0000000000000000     
  -2.2499999999999985E-003     0.0000000000000000     
  -1.8749999999999982E-003     0.0000000000000000     
  -1.4999999999999996E-003     0.0000000000000000     
  -1.1249999999999993E-003     0.0000000000000000     
  -7.4999999999999893E-004     0.0000000000000000     
  -3.7499999999999860E-004     0.0000000000000000     
   1.7347234759768071E-018     0.0000000000000000     
   3.7500000000000207E-004     0.0000000000000000     
   7.5000000000000067E-004     0.0000000000000000     
   1.1250000000000010E-003     0.0000000000000000     
   1.5000000000000013E-003     0.0000000000000000     
   1.8750000000000017E-003     0.0000000000000000     
   2.2500000000000020E-003     0.0000000000000000     
   2.6250000000000023E-003     0.0000000000000000     
   3.0000000000000027E-003     0.0000000000000000     
   3.3750000000000030E-003     0.0000000000000000     
   3.7499999999999999E-003     0.0000000000000000     
   4.1250000000000002E-003     0.0000000000000000     
   4.5000000000000005E-003     0.0000000000000000     
   4.8750000000000009E-003     0.0000000000000000     
   5.2500000000000012E-003     0.0000000000000000     
   5.6250000000000015E-003     0.0000000000000000     
   6.0000000000000019E-003     0.0000000000000000     
   6.3750000000000022E-003     0.0000000000000000     
   6.7500000000000025E-003     0.0000000000000000     
   7.1250000000000029E-003     0.0000000000000000     
   7.5000000000000032E-003     6.0997590588614386E-038
   7.8750000000000001E-003     6.1756361633964797E-036
   8.2500000000000004E-003     3.1100795381343255E-034
   8.6250000000000007E-003     3.6897089729362134E-033
   9.0000000000000011E-003     2.8361835976845063E-032
   9.3750000000000014E-003    -1.3345102890490569E-031
   9.7500000000000017E-003    -1.6347809394681552E-030
   1.0125000000000002E-002     4.9718102121318781E-030
   1.0500000000000002E-002     4.2666382566173371E-029
   1.0875000000000003E-002    -2.8880209540439223E-028
   1.1250000000000003E-002     4.1153668758953716E-028
   1.1625000000000003E-002     3.2195249068149421E-027
   1.2000000000000000E-002    -2.6085917107617685E-026
   1.2375000000000001E-002     1.1377465527378669E-025
   1.2750000000000001E-002    -4.1443596511103272E-025
   1.3125000000000001E-002     2.2843626430198100E-024
   1.3500000000000002E-002     7.7261391168507313E-024
   1.3875000000000002E-002     3.0762536615931996E-023
   1.4250000000000002E-002     1.1457903070175866E-022
   1.4625000000000003E-002     4.3424522732404987E-022
   1.5000000000000003E-002     1.6053824597647162E-021
   1.5375000000000003E-002     5.8352243956635112E-021
   1.5750000000000004E-002     2.0820871227404535E-020
   1.6125000000000000E-002     7.2943231244884447E-020
   1.6500000000000001E-002     2.5090367415492825E-019
   1.6875000000000001E-002     8.4732814380057495E-019
   1.7250000000000001E-002     2.8094055312574388E-018
   1.7625000000000002E-002     9.1450627595836416E-018
   1.8000000000000002E-002     2.9225398830149080E-017
   1.8375000000000002E-002     9.1690877349211562E-017
   1.8750000000000003E-002     2.8240604139170260E-016
   1.9125000000000003E-002     8.5388109445098770E-016
   1.9500000000000003E-002     2.5344354320288061E-015
   1.9875000000000004E-002     7.3844600556920851E-015
   2.0250000000000004E-002     2.1120027966214221E-014
   2.0625000000000004E-002     5.9292603091632502E-014
   2.1000000000000005E-002     1.6338744450855624E-013
   2.1375000000000005E-002     4.4191721593137319E-013
   2.1750000000000005E-002     1.1731320348715397E-012
   2.2125000000000006E-002     3.0564991703974117E-012
   2.2499999999999999E-002     7.8154969519941954E-012
   2.2875000000000000E-002     1.9612130183998908E-011
   2.3250000000000000E-002     4.8295836372320227E-011
   2.3625000000000000E-002     1.1670602341301602E-010
   2.4000000000000000E-002     2.7672684226669793E-010
   2.4375000000000001E-002     6.4382072131370949E-010
   2.4750000000000001E-002     1.4696100771300598E-009
   2.5125000000000001E-002     3.2911257632745869E-009
   2.5500000000000002E-002     7.2302990304174216E-009
   2.5875000000000002E-002     1.5581638485738823E-008
   2.6250000000000002E-002     3.2936485458499395E-008
   2.6625000000000003E-002     6.8282816635577284E-008
   2.7000000000000003E-002     1.3882885861163542E-007
   2.7375000000000003E-002     2.7678345742858264E-007
   2.7750000000000004E-002     5.4105467948371958E-007
   2.8125000000000004E-002     1.0368961567160700E-006
   2.8500000000000004E-002     1.9479133962151628E-006
   2.8875000000000005E-002     3.5865172894666489E-006
   2.9250000000000005E-002     6.4712369949013237E-006
   2.9625000000000005E-002     1.1440184852145837E-005
   3.0000000000000006E-002     1.9811763389558819E-005
   3.0375000000000006E-002     3.3602581201009067E-005
   3.0750000000000000E-002     5.5804335849519646E-005
   3.1125000000000000E-002     9.0718131152218474E-005
   3.1500000000000000E-002     1.4431663348013794E-004
   3.1875000000000001E-002     2.2458540923145018E-004
   3.2250000000000001E-002     3.4175481146053559E-004
   3.2625000000000001E-002     5.0827775995644815E-004
   3.3000000000000002E-002     7.3844875880803990E-004
   3.3375000000000002E-002     1.0473178194422804E-003
   3.3750000000000002E-002     1.4489058021490142E-003
   3.4125000000000003E-002     1.9534881728943618E-003
   3.4500000000000003E-002     2.5637590981958114E-003
   3.4875000000000003E-002     3.2707593255955902E-003
   3.5250000000000004E-002     4.0485941965444916E-003
   3.5625000000000004E-002     4.8512454393902504E-003
   3.6000000000000004E-002     5.6090325026243448E-003
   3.6375000000000005E-002     6.2301504916644490E-003
   3.6750000000000005E-002     6.6044501745601836E-003
   3.7125000000000005E-002     6.6137639068922782E-003
   3.7500000000000006E-002     6.1460810269975685E-003
   3.7875000000000006E-002     5.1153030089057527E-003
   3.8250000000000006E-002     3.4827776840787028E-003
   3.8625000000000007E-002     1.2758813125981761E-003
   3.9000000000000000E-002    -1.3979297002971207E-003
   3.9375000000000000E-002    -4.3462360598164190E-003
   3.9750000000000001E-002    -7.3041200504134207E-003
   4.0125000000000001E-002    -9.9631338429170824E-003
   4.0500000000000001E-002    -1.2011882289257758E-002
   4.0875000000000002E-002    -1.3190650091264633E-002
   4.1250000000000002E-002    -1.3355510849259344E-002
   4.1625000000000002E-002    -1.2516297551511402E-002
   4.2000000000000003E-002    -1.0886303100657579E-002
   4.2375000000000003E-002    -8.8718455846994448E-003
   4.2750000000000003E-002    -7.0452884164668161E-003
   4.3125000000000004E-002    -6.0875095317834971E-003
   4.3500000000000004E-002    -6.6754088858016480E-003
   4.3875000000000004E-002    -9.3841967813066141E-003
   4.4250000000000005E-002    -1.4560283344534075E-002
   4.4625000000000005E-002    -2.2238765059778176E-002
   4.5000000000000005E-002    -3.2072230527348866E-002
   4.5375000000000006E-002    -4.3342290233801872E-002
   4.5750000000000006E-002    -5.4985823815695056E-002
   4.6125000000000006E-002    -6.5723323086183338E-002
   4.6500000000000007E-002    -7.4166496300071660E-002
   4.6875000000000007E-002    -7.9012056805259245E-002
   4.7250000000000000E-002    -7.9162771515347341E-002
   4.7625000000000001E-002    -7.3888647454313894E-002
   4.8000000000000001E-002    -6.2889605641694768E-002
   4.8375000000000001E-002    -4.6333257477822798E-002
   4.8750000000000002E-002    -2.4830284254541812E-002
   4.9125000000000002E-002     6.3742406274891472E-004
   4.9500000000000002E-002     2.8828426148488184E-002
   4.9875000000000003E-002     5.8375637295440486E-002
   5.0250000000000003E-002     8.7870918785311947E-002
   5.0625000000000003E-002    0.11600529856360264     
   5.1000000000000004E-002    0.14159045080935373     
   5.1375000000000004E-002    0.16361904050811393     
   5.1750000000000004E-002    0.18124108116001292     
   5.2125000000000005E-002    0.19375016216643459     
   5.2500000000000005E-002    0.20054687760247081     
   5.2875000000000005E-002    0.20112293321699770     
   5.3250000000000006E-002    0.19507719018802661     
   5.3625000000000006E-002    0.18211857396862285     
   5.4000000000000006E-002    0.16216947990145414     
   5.4375000000000007E-002    0.13542477352846483     
   5.4750000000000007E-002    0.10243093027897787     
   5.5125000000000007E-002     6.4206229633708478E-002
   5.5500000000000008E-002     2.2156514090622137E-002
   5.5875000000000008E-002    -2.1823930626727356E-002
   5.6250000000000008E-002    -6.5573585446472071E-002
   5.6625000000000009E-002   -0.10678258868630852     
   5.7000000000000009E-002   -0.14316538570149939     
   5.7375000000000009E-002   -0.17277120525020440     
   5.7750000000000010E-002   -0.19413104917809587     
   5.8125000000000010E-002   -0.20642274642473613     
   5.8500000000000010E-002   -0.20954893183444057     
   5.8875000000000011E-002   -0.20416101411744592     
   5.9250000000000011E-002   -0.19143369035906588     
   5.9624999999999997E-002   -0.17299847762329801     
   5.9999999999999998E-002   -0.15065314340695757     
   6.0374999999999998E-002   -0.12610113798707268     
   6.0749999999999998E-002   -0.10083132201730294     
   6.1124999999999999E-002    -7.5909233414516830E-002
   6.1499999999999999E-002    -5.1957149368194511E-002
   6.1874999999999999E-002    -2.9223779804529615E-002
   6.2250000000000000E-002    -7.6823940028267756E-003
   6.2625000000000000E-002     1.2844515914451488E-002
   6.3000000000000000E-002     3.2420876670467558E-002
   6.3375000000000001E-002     5.0921000485811163E-002
   6.3750000000000001E-002     6.7863972579173204E-002
   6.4125000000000001E-002     8.2445446846032500E-002
   6.4500000000000002E-002     9.3559431987279673E-002
   6.4875000000000002E-002     9.9938129439065104E-002
   6.5250000000000002E-002    0.10034064895666273     
   6.5625000000000003E-002     9.3755112259278572E-002
   6.6000000000000003E-002     7.9678162512145434E-002
   6.6375000000000003E-002     5.8189024421718472E-002
   6.6750000000000004E-002     3.0150279618935905E-002
   6.7125000000000004E-002    -2.8093844225547393E-003
   6.7500000000000004E-002    -3.8324341294522279E-002
   6.7875000000000005E-002    -7.3480653514907290E-002
   6.8250000000000005E-002   -0.10506226451964107     
   6.8625000000000005E-002   -0.12984626241223562     
   6.9000000000000006E-002   -0.14497883084592189     
   6.9375000000000006E-002   -0.14831287499655854     
   6.9750000000000006E-002   -0.13872477053575683     
   7.0125000000000007E-002   -0.11637925437659913     
   7.0500000000000007E-002    -8.2733074124195838E-002
   7.0875000000000007E-002    -4.0597714246169980E-002
   7.1250000000000008E-002     6.2340558955467640E-003
   7.1625000000000008E-002     5.3218309275250730E-002
   7.2000000000000008E-002     9.5740058451620813E-002
   7.2375000000000009E-002    0.12953539647780632     
   7.2750000000000009E-002    0.15133355635797319     
   7.3125000000000009E-002    0.15926677162550007     
   7.3500000000000010E-002    0.15307568083727752     
   7.3875000000000010E-002    0.13431600562209223     
   7.4250000000000010E-002    0.10592760946136881     
   7.4625000000000011E-002     7.2004640620187743E-002
   7.5000000000000011E-002     3.7157321223744155E-002
   7.5375000000000011E-002     5.8372939906936160E-003
   7.5750000000000012E-002    -1.8189497400729809E-002
   7.6124999999999998E-002    -3.2355142320984021E-002
   7.6499999999999999E-002    -3.5636640792286012E-002
   7.6874999999999999E-002    -2.8428713388619298E-002
   7.7249999999999999E-002    -1.2585186088241662E-002
   7.7625000000000000E-002     9.0865611304849717E-003
   7.8000000000000000E-002     3.3295225861066258E-002
   7.8375000000000000E-002     5.6668681054243275E-002
   7.8750000000000001E-002     7.6363408209826789E-002
   7.9125000000000001E-002     9.0295928645714341E-002
   7.9500000000000001E-002     9.7337091917310214E-002
   7.9875000000000002E-002     9.7372591358353855E-002
   8.0250000000000002E-002     9.1088768603555081E-002
   8.0625000000000002E-002     7.9709638752934353E-002
   8.1000000000000003E-002     6.4682658474857657E-002
   8.1375000000000003E-002     4.7368012430797579E-002
   8.1750000000000003E-002     2.8813294150597635E-002
   8.2125000000000004E-002     9.5742434027500378E-003
   8.2500000000000004E-002    -1.0154800439679534E-002
   8.2875000000000004E-002    -3.0459480005752160E-002
   8.3250000000000005E-002    -5.1409860866960755E-002
   8.3625000000000005E-002    -7.2747068139490390E-002
   8.4000000000000005E-002    -9.3719974165654474E-002
   8.4375000000000006E-002   -0.11285351806818156     
   8.4750000000000006E-002   -0.12807187533207109     
   8.5125000000000006E-002   -0.13688092062318979     
   8.5500000000000007E-002   -0.13685379913342555     
   8.5875000000000007E-002   -0.12598076336848330     
   8.6250000000000007E-002   -0.10336771241916898     
   8.6625000000000008E-002    -6.9480958779595703E-002
   8.7000000000000008E-002    -2.6440327141751263E-002
   8.7375000000000008E-002     2.2035001215545583E-002
   8.7750000000000009E-002     7.1023746487696326E-002
   8.8125000000000009E-002    0.11492643671627523     
   8.8500000000000009E-002    0.14820076214980826     
   8.8875000000000010E-002    0.16613628072893949     
   8.9250000000000010E-002    0.16553447422260614     
   8.9625000000000010E-002    0.14510865053963684     
   9.0000000000000011E-002    0.10573159019139045     
   9.0375000000000011E-002     5.0304137476188782E-002
   9.0750000000000011E-002    -1.6698721704533015E-002
   9.1125000000000012E-002    -8.9637537415661495E-002
   9.1500000000000012E-002   -0.16245714356114949     
   9.1875000000000012E-002   -0.22935319923625563     
   9.2250000000000013E-002   -0.28513675614721290     
   9.2624999999999999E-002   -0.32576174199306962     
   9.2999999999999999E-002   -0.34841978344510949     
   9.3375000000000000E-002   -0.35164239476921644     
   9.3750000000000000E-002   -0.33520414854960912     
   9.4125000000000000E-002   -0.30002018925995344     
   9.4500000000000001E-002   -0.24798482350314721     
   9.4875000000000001E-002   -0.18179775629245309     
   9.5250000000000001E-002   -0.10491080004217856     
   9.5625000000000002E-002    -2.1219085135619209E-002
   9.6000000000000002E-002     6.5082557210309727E-002
   9.6375000000000002E-002    0.14968426489522582     
   9.6750000000000003E-002    0.22873163287574849     
   9.7125000000000003E-002    0.29883179416103012     
   9.7500000000000003E-002    0.35776192255059858     
   9.7875000000000004E-002    0.40438689176702702     
   9.8250000000000004E-002    0.43892537101773321     
   9.8625000000000004E-002    0.46270546700115744     
   9.9000000000000005E-002    0.47792004553366141     
   9.9375000000000005E-002    0.48696143791630320     
   9.9750000000000005E-002    0.49179686472660578     
  0.10012500000000001         0.49329556739876601     
  0.10050000000000001         0.49075062356221721     
  0.10087500000000001         0.48148125580406287     
  0.10125000000000001         0.46097124659421418     
  0.10162500000000001         0.42335968226840848     
  0.10200000000000001         0.36218458416271559     
  0.10237500000000001         0.27160692614427795     
  0.10275000000000001         0.14761586919804337     
  0.10312500000000001         -1.0710446628676706E-002
  0.10350000000000001        -0.20028895039867511     
  0.10387500000000001        -0.41339448600006246     
  0.10425000000000001        -0.63781292224958097     
  0.10462500000000001        -0.85749447058034534     
  0.10500000000000001         -1.0538495690544352     
  0.10537500000000001         -1.2078240631558614     
  0.10575000000000001         -1.3017882010553450     
  0.10612500000000001         -1.3220928262568279     
  0.10650000000000001         -1.2609305375538042     
  0.10687500000000001         -1.1176752276724287     
  0.10725000000000001        -0.89969113106685228     
  0.10762500000000001        -0.62189101084302933     
  0.10800000000000001        -0.30543836332520868     
  0.10837500000000001          2.4355927411550127E-002
  0.10875000000000001         0.34065502982386020     
  0.10912500000000000         0.61802947434824773     
  0.10950000000000000         0.83535955261209693     
  0.10987500000000000         0.97767325082015688     
  0.11025000000000000          1.0380331590053302     
  0.11062500000000001          1.0177603742028580     
  0.11100000000000000         0.92594534685489549     
  0.11137500000000002         0.77837198313049072     
  0.11175000000000000         0.59510767568852074     
  0.11212500000000002         0.39852991711713415     
  0.11250000000000000         0.21046254383199781     
  0.11287500000000002          4.9983553403101566E-002
  0.11325000000000000         -6.8498048138245338E-002
  0.11362500000000002        -0.13677711557289740     
  0.11400000000000000        -0.15330875582826664     
  0.11437500000000002        -0.12315412777092649     
  0.11475000000000000         -5.7090346570881634E-002
  0.11512500000000002          3.0091754582973113E-002
  0.11550000000000001         0.12168728433528031     
  0.11587500000000002         0.20132829301528687     
  0.11625000000000001         0.25551517152382175     
  0.11662500000000002         0.27525618526676254     
  0.11700000000000001         0.25758706989822855     
  0.11737499999999999         0.20544172031148022     
  0.11775000000000001         0.12739618990152213     
  0.11812499999999999          3.5787560603879109E-002
  0.11850000000000001         -5.5352601355986852E-002
  0.11887499999999999        -0.13295375621738681     
  0.11925000000000001        -0.18670115285908473     
  0.11962500000000000        -0.21136085462114451     
  0.12000000000000001        -0.20698422419730989     
  0.12037500000000000        -0.17875962447706861     
  0.12075000000000001        -0.13605845699030006     
  0.12112500000000000         -9.0327520196409772E-002
  0.12150000000000001         -5.2818812175066565E-002
  0.12187500000000000         -3.2795562323744587E-002
  0.12225000000000001         -3.5765124250652092E-002
  0.12262500000000000         -6.2581008008189803E-002
  0.12300000000000001        -0.10968466647455510     
  0.12337500000000000        -0.16978373849848927     
  0.12375000000000001        -0.23319749757227748     
  0.12412500000000000        -0.28960093620451932     
  0.12450000000000001        -0.32989795168233327     
  0.12487500000000000        -0.34704341135410033     
  0.12525000000000003        -0.33758360763251538     
  0.12562499999999999        -0.30159868599217887     
  0.12600000000000000        -0.24243584121507133     
  0.12637500000000002        -0.16628937454389359     
  0.12675000000000003         -8.1009910296276910E-002
  0.12712499999999999          4.9005901091221382E-003
  0.12750000000000000          8.3397809325933575E-002
  0.12787500000000002         0.14769769276528466     
  0.12825000000000003         0.19292388170653130     
  0.12862499999999999         0.21644489740814921     
  0.12900000000000000         0.21791920345036164     
  0.12937500000000002         0.19901244056106826     
  0.12975000000000003         0.16329666331451165     
  0.13012499999999999         0.11540430649282918     
  0.13050000000000000          6.0815102534548249E-002
  0.13087500000000002          5.3005625997588623E-003
  0.13125000000000003         -4.5626675995340718E-002
  0.13162499999999999         -8.7187959524955727E-002
  0.13200000000000001        -0.11543932775325116     
  0.13237500000000002        -0.12778891058049924     
  0.13275000000000003        -0.12306407772781425     
  0.13312499999999999        -0.10158235364750556     
  0.13350000000000001         -6.5244429558799499E-002
  0.13387500000000002         -1.7319153069904974E-002
  0.13424999999999998          3.7996159575464206E-002
  0.13462499999999999          9.5670714076624197E-002
  0.13500000000000001         0.15047571874121768     
  0.13537500000000002         0.19751142025238844     
  0.13574999999999998         0.23266945953706042     
  0.13612500000000000         0.25311287461996201     
  0.13650000000000001         0.25733874448900984     
  0.13687500000000002         0.24564104515022755     
  0.13724999999999998         0.21962432794887743     
  0.13762500000000000         0.18231008674055893     
  0.13800000000000001         0.13745427256736065     
  0.13837500000000003          8.9200745915159807E-002
  0.13874999999999998          4.1573697192979431E-002
  0.13912500000000000         -1.7551045985854108E-003
  0.13950000000000001         -3.8164488588840473E-002
  0.13987500000000003         -6.5790618706821791E-002
  0.14024999999999999         -8.3782033469624428E-002
  0.14062500000000000         -9.2420194058937533E-002
  0.14100000000000001         -9.2382030966450479E-002
  0.14137500000000003         -8.5467009862204346E-002
  0.14174999999999999         -7.3866654012213928E-002
  0.14212500000000000         -6.0158889084763523E-002
  0.14250000000000002         -4.7433939049102092E-002
  0.14287500000000003         -3.8634720111192067E-002
  0.14324999999999999         -3.6463834157351993E-002
  0.14362500000000000         -4.2828288558791616E-002
  0.14400000000000002         -5.7769344117244104E-002
  0.14437500000000003         -7.9531619968508049E-002
  0.14474999999999999        -0.10382583521977190     
  0.14512500000000000        -0.12403147048781110     
  0.14550000000000002        -0.13213480904387781     
  0.14587500000000003        -0.11986644500139354     
  0.14624999999999999         -8.0909992477079085E-002
  0.14662500000000001         -1.3118957625431804E-002
  0.14700000000000002          8.0139024108690560E-002
  0.14737500000000003         0.18828563870060414     
  0.14774999999999999         0.29429915080421809     
  0.14812500000000001         0.37631006603882788     
  0.14850000000000002         0.41113518679534289     
  0.14887500000000004         0.37873516450518085     
  0.14924999999999999         0.26676600695792274     
  0.14962500000000001          7.4979712930767661E-002
  0.15000000000000002        -0.18256270742521608     
  0.15037499999999998        -0.47732284523185964     
  0.15075000000000000        -0.76916923863864284     
  0.15112500000000001         -1.0116187912685364     
  0.15150000000000002         -1.1590597302819112     
  0.15187499999999998         -1.1745811148051111     
  0.15225000000000000         -1.0368586785446432     
  0.15262500000000001        -0.74530887297404291     
  0.15300000000000002        -0.32182452164325603     
  0.15337499999999998         0.19088246099161665     
  0.15375000000000000         0.73454598495307710     
  0.15412500000000001          1.2427012156555239     
  0.15450000000000003          1.6500587497560666     
  0.15487499999999998          1.9013386667444157     
  0.15525000000000000          1.9589078229845764     
  0.15562500000000001          1.8078601097502265     
  0.15600000000000003          1.4576482119308594     
  0.15637499999999999         0.94099415960483412     
  0.15675000000000000         0.30940271909426897     
  0.15712500000000001        -0.37339654996729621     
  0.15750000000000003         -1.0388116680018875     
  0.15787499999999999         -1.6213702105801957     
  0.15825000000000000         -2.0655602250459424     
  0.15862500000000002         -2.3305924638121205     
  0.15900000000000003         -2.3945477436211071     
  0.15937499999999999         -2.2548687724009469     
  0.15975000000000000         -1.9270814243651841     
  0.16012500000000002         -1.4429415224162625     
  0.16050000000000003        -0.84553946455598705     
  0.16087499999999999        -0.18515488498936250     
  0.16125000000000000         0.48554726643716606     
  0.16162500000000002          1.1164026390506523     
  0.16200000000000003          1.6630826887913877     
  0.16237499999999999          2.0902628662573459     
  0.16275000000000001          2.3733583802932667     
  0.16312500000000002          2.4993045010437065     
  0.16350000000000003          2.4666954210915719     
  0.16387499999999999          2.2843810146542936     
  0.16425000000000001          1.9701757300784521     
  0.16462500000000002          1.5493103069406118     
  0.16500000000000004          1.0513389343604018     
  0.16537499999999999         0.50856459563002510     
  0.16575000000000001         -4.6143291052342050E-002
  0.16612500000000002        -0.58186867922058561     
  0.16650000000000004         -1.0704376152374637     
  0.16687500000000000         -1.4884412421016329     
  0.16725000000000001         -1.8177377341031127     
  0.16762500000000002         -2.0460009973395064     
  0.16799999999999998         -2.1667684966367844     
  0.16837500000000000         -2.1794334077163668     
  0.16875000000000001         -2.0887574984375092     
  0.16912500000000003         -1.9041059221250123     
  0.16949999999999998         -1.6386127942470807     
  0.16987500000000000         -1.3085136242905619     
  0.17025000000000001        -0.93194332071173136     
  0.17062500000000003        -0.52791405144232684     
  0.17099999999999999        -0.11579732711921409     
  0.17137500000000000         0.28635527282644269     
  0.17175000000000001         0.66165000314501365     
  0.17212500000000003         0.99522060139524093     
  0.17249999999999999          1.2754465968649260     
  0.17287500000000000          1.4929275597675105     
  0.17325000000000002          1.6418407401554518     
  0.17362500000000003          1.7192307415854522     
  0.17399999999999999          1.7252385811395854     
  0.17437500000000000          1.6628255285703659     
  0.17475000000000002          1.5374216027909782     
  0.17512500000000003          1.3566517176150938     
  0.17549999999999999          1.1296764014598892     
  0.17587500000000000         0.86706189986740156     
  0.17625000000000002         0.57997407122513778     
  0.17662500000000003         0.27992781491418040     
  0.17699999999999999         -2.1901815395747093E-002
  0.17737500000000000        -0.31458512503229130     
  0.17775000000000002        -0.58837591146119772     
  0.17812500000000003        -0.83450121291441448     
  0.17849999999999999         -1.0456009928294512     
  0.17887500000000001         -1.2159428321627583     
  0.17925000000000002         -1.3412030836197495     
  0.17962500000000003         -1.4189504129459394     
  0.17999999999999999         -1.4481724088855685     
  0.18037500000000001         -1.4297884796140252     
  0.18075000000000002         -1.3657948799889184     
  0.18112500000000004         -1.2596424544419307     
  0.18149999999999999         -1.1160939510102708     
  0.18187500000000001        -0.94062947858851942     
  0.18225000000000002        -0.73950258905327360     
  0.18262500000000004        -0.51956835621956898     
  0.18300000000000000        -0.28785253362706698     
  0.18337500000000001         -5.1760574466340081E-002
  0.18375000000000002         0.18191163374518293     
  0.18412499999999998         0.40624434011232302     
  0.18450000000000000         0.61517501684270393     
  0.18487500000000001         0.80311552643492956     
  0.18525000000000003         0.96540019987786785     
  0.18562499999999998          1.0983828452195894     
  0.18600000000000000          1.1991714077865865     
  0.18637500000000001          1.2660198664225675     
  0.18675000000000003          1.2980927830261066     
  0.18712499999999999          1.2956354906179328     
  0.18750000000000000          1.2597369751791589     
  0.18787500000000001          1.1922307998689305     
  0.18825000000000003          1.0958594661983483     
  0.18862499999999999         0.97397225743772253     
  0.18900000000000000         0.83024213220431164     