  -1.4999999999999999E-002     0.0000000000000000     
  -1.4624999999999999E-002    -1.3017265174709496E-031
  -1.4249999999999999E-002    -1.0532981763516586E-029
  -1.3874999999999998E-002     1.9455919063793562E-028
  -1.3500000000000000E-002    -4.0038216841782777E-028
  -1.3125000000000000E-002    -3.3105257794436111E-028
  -1.2749999999999999E-002     1.9283630022625362E-027
  -1.2374999999999999E-002     6.3843233234893371E-027
  -1.2000000000000000E-002    -2.3113498702044881E-026
  -1.1625000000000000E-002     4.4200071042161549E-026
  -1.1250000000000000E-002     1.8726597997450123E-026
  -1.0874999999999999E-002     8.9356113128322945E-026
  -1.0499999999999999E-002     1.6444417323838318E-025
  -1.0124999999999999E-002     5.9673801196282094E-025
  -9.7499999999999983E-003     1.3955072608096909E-024
  -9.3749999999999979E-003     2.7816039064144804E-024
  -8.9999999999999993E-003     3.7811886054289571E-024
  -8.6249999999999990E-003    -2.5092344779760390E-024
  -8.2500000000000004E-003    -4.4999080068341480E-023
  -7.8750000000000001E-003    -2.4200500892983256E-022
  -7.4999999999999989E-003    -1.0023039527396184E-021
  -7.1249999999999994E-003    -3.6503683920398441E-021
  -6.7499999999999991E-003    -1.2265382788592600E-020
  -6.3749999999999987E-003    -3.8850878192918988E-020
  -5.9999999999999984E-003    -1.1752425271094627E-019
  -5.6249999999999998E-003    -3.4149247489514002E-019
  -5.2499999999999995E-003    -9.5828243904425391E-019
  -4.8749999999999991E-003    -2.6020515750187053E-018
  -4.4999999999999988E-003    -6.8564784320003465E-018
  -4.1249999999999985E-003    -1.7558604778781265E-017
  -3.7499999999999981E-003    -4.3740309187087825E-017
  -3.3749999999999995E-003    -1.0612032779575862E-016
  -2.9999999999999992E-003    -2.5055692245250676E-016
  -2.6249999999999989E-003    -5.7637630584364531E-016
  -2.2499999999999985E-003    -1.2915485620021954E-015
  -1.8749999999999982E-003    -2.8099842620368649E-015
  -1.4999999999999996E-003    -5.9414839282458926E-015
  -1.1249999999999993E-003    -1.2120511663524885E-014
  -7.4999999999999893E-004    -2.3727029880850836E-014
  -3.7499999999999860E-004    -4.3918334930149315E-014
   1.7347234759768071E-018    -7.4820046894433878E-014
   3.7500000000000207E-004    -1.0785141579870646E-013
   7.5000000000000067E-004    -9.9040657859816434E-014
   1.1250000000000010E-003     1.2386958443744650E-013
   1.5000000000000013E-003     1.0891604318089942E-012
   1.8750000000000017E-003     4.3401325401556850E-012
   2.2500000000000020E-003     1.4057105812141755E-011
   2.6250000000000023E-003     4.1336650016683213E-011
   3.0000000000000027E-003     1.1431040418102206E-010
   3.3750000000000030E-003     3.0265892860482233E-010
   3.7499999999999999E-003     7.7486714616093458E-010
   4.1250000000000002E-003     1.9277450693494000E-009
   4.5000000000000005E-003     4.6756333344299840E-009
   4.8750000000000009E-003     1.1076455659186808E-008
   5.2500000000000012E-003     2.5661324939420132E-008
   5.6250000000000015E-003     5.8188745880184917E-008
   6.0000000000000019E-003     1.2920581331714256E-007
   6.3750000000000022E-003     2.8100950612762924E-007
   6.7500000000000025E-003     5.9884253685481593E-007
   7.1250000000000029E-003     1.2503446940826921E-006
   7.5000000000000032E-003     2.5584424044861961E-006
   7.8750000000000001E-003     5.1300743286930570E-006
   8.2500000000000004E-003     1.0080267350501551E-005
   8.6250000000000007E-003     1.9409714396254518E-005
   9.0000000000000011E-003     3.6620903993735722E-005
   9.3750000000000014E-003     6.7695953460998192E-005
   9.7500000000000017E-003     1.2259308153640255E-004
   1.0125000000000002E-002     2.1746473632008217E-004
   1.0500000000000002E-002     3.7778000136343159E-004
   1.0875000000000003E-002     6.4258471379480383E-004
   1.1250000000000003E-002     1.0699293617286410E-003
   1.1625000000000003E-002     1.7433471991769752E-003
   1.2000000000000000E-002     2.7787911785754726E-003
   1.2375000000000001E-002     4.3310598738339747E-003
   1.2750000000000001E-002     6.5974160666340924E-003
   1.3125000000000001E-002     9.8159222183925310E-003
   1.3500000000000002E-002     1.4254262110704097E-002
   1.3875000000000002E-002     2.0184231571140701E-002
   1.4250000000000002E-002     2.7837996441482136E-002
   1.4625000000000003E-002     3.7340758187422031E-002
   1.5000000000000003E-002     4.8620763612182510E-002
   1.5375000000000003E-002     6.1296564334598944E-002
   1.5750000000000004E-002     7.4555858941738246E-002
   1.6125000000000000E-002     8.7038923102082916E-002
   1.6500000000000001E-002     9.6755713840452617E-002
   1.6875000000000001E-002    0.10106601500918495     
   1.7250000000000001E-002     9.6761426336781808E-002
   1.7625000000000002E-002     8.0283451544742174E-002
   1.8000000000000002E-002     4.8075186541009243E-002
   1.8375000000000002E-002    -2.9040977399338204E-003
   1.8750000000000003E-002    -7.4554080668670641E-002
   1.9125000000000003E-002   -0.16698635569719197     
   1.9500000000000003E-002   -0.27790767117127496     
   1.9875000000000004E-002   -0.40218159004855419     
   2.0250000000000004E-002   -0.53173052509776442     
   2.0625000000000004E-002   -0.65573812798591347     
   2.1000000000000005E-002   -0.76138884858489975     
   2.1375000000000005E-002   -0.83498618244869849     
   2.1750000000000005E-002   -0.86330263320687461     
   2.2125000000000006E-002   -0.83518221431399142     
   2.2499999999999999E-002   -0.74290976738685899     
   2.2875000000000000E-002   -0.58332389231642301     
   2.3250000000000000E-002   -0.35833386518877763     
   2.3625000000000000E-002    -7.4896650242857049E-002
   2.4000000000000000E-002    0.25572186660460766     
   2.4375000000000001E-002    0.61896674863096335     
   2.4750000000000001E-002    0.99817778092095222     
   2.5125000000000001E-002     1.3757618172906816     
   2.5500000000000002E-002     1.7338657761549734     
   2.5875000000000002E-002     2.0543411259261490     
   2.6250000000000002E-002     2.3187663661027194     
   2.6625000000000003E-002     2.5076736442511547     
   2.7000000000000003E-002     2.6004151741637127     
   2.7375000000000003E-002     2.5756813221873749     
   2.7750000000000004E-002     2.4127992723741323     
   2.8125000000000004E-002     2.0947092456913281     
   2.8500000000000004E-002     1.6114281669928707     
   2.8875000000000005E-002    0.96448246823770334     
   2.9250000000000005E-002    0.17059995703510633     
   2.9625000000000005E-002   -0.73601987708622918     
   3.0000000000000006E-002    -1.7032975400449395     
   3.0375000000000006E-002    -2.6641948479312827     
   3.0750000000000000E-002    -3.5420689268424184     
   3.1125000000000000E-002    -4.2591839559357094     
   3.1500000000000000E-002    -4.7452120794243005     
   3.1875000000000001E-002    -4.9471604681885086     
   3.2250000000000001E-002    -4.8364376421959294     
   3.2625000000000001E-002    -4.4136256803228324     
   3.3000000000000002E-002    -3.7089342375506389     
   3.3375000000000002E-002    -2.7793919498631539     
   3.3750000000000002E-002    -1.7017418629012329     
   3.4125000000000003E-002   -0.56363148578238276     
   3.4500000000000003E-002    0.54686071410946857     
   3.4875000000000003E-002     1.5499026560778537     
   3.5250000000000004E-002     2.3826935458949214     
   3.5625000000000004E-002     3.0034362283090825     
   3.6000000000000004E-002     3.3934511861638113     
   3.6375000000000005E-002     3.5561320986457208     
   3.6750000000000005E-002     3.5130825200835321     
   3.7125000000000005E-002     3.2992689724378481     
   3.7500000000000006E-002     2.9568317494518404     
   3.7875000000000006E-002     2.5303049235272459     
   3.8250000000000006E-002     2.0611978731106024     
   3.8625000000000007E-002     1.5852347072831017     
   3.9000000000000000E-002     1.1306436531024004     
   3.9375000000000000E-002    0.71676381485835483     
   3.9750000000000001E-002    0.35540153998468094     
   4.0125000000000001E-002     5.1740891764469027E-002
   4.0500000000000001E-002   -0.19459429984897697     
   4.0875000000000002E-002   -0.38699258736840048     
   4.1250000000000002E-002   -0.53150058526123434     
   4.1625000000000002E-002   -0.63490852218832972     
   4.2000000000000003E-002   -0.70399009247781763     
   4.2375000000000003E-002   -0.74529049231267319     
   4.2750000000000003E-002   -0.76489344449155616     
   4.3125000000000004E-002   -0.76765015792622893     
   4.3500000000000004E-002   -0.75774939464661351     
   4.3875000000000004E-002   -0.73907276475652839     
   4.4250000000000005E-002   -0.71393251391138990     
   4.4625000000000005E-002   -0.68501550811470779     
   4.5000000000000005E-002   -0.65375682962180637     
   4.5375000000000006E-002   -0.62115676433932332     
   4.5750000000000006E-002   -0.58822060911409602     
   4.6125000000000006E-002   -0.55499292341020756     
   4.6500000000000007E-002   -0.52140426646068294     
   4.6875000000000007E-002   -0.48728172706140749     
   4.7250000000000000E-002   -0.45195164703810276     
   4.7625000000000001E-002   -0.41497078341989657     
   4.8000000000000001E-002   -0.37589822524246541     
   4.8375000000000001E-002   -0.33412437013869623     
   4.8750000000000002E-002   -0.28960856505356986     
   4.9125000000000002E-002   -0.24243079755891195     
   4.9500000000000002E-002   -0.19259895552163425     
   4.9875000000000003E-002   -0.14089684530056149     
   5.0250000000000003E-002    -8.7900139598958371E-002
   5.0625000000000003E-002    -3.4369773400119853E-002
   5.1000000000000004E-002     1.8455665029039694E-002
   5.1375000000000004E-002     6.9801306985508946E-002
   5.1750000000000004E-002    0.11848001326448296     
   5.2125000000000005E-002    0.16350168560608389     
   5.2500000000000005E-002    0.20418601683390056     
   5.2875000000000005E-002    0.23951571723361040     
   5.3250000000000006E-002    0.26912350561294257     
   5.3625000000000006E-002    0.29263206970622047     
   5.4000000000000006E-002    0.30975524518641001     
   5.4375000000000007E-002    0.32056686861238359     
   5.4750000000000007E-002    0.32520241710066877     
   5.5125000000000007E-002    0.32399448739122416     
   5.5500000000000008E-002    0.31726281954287455     
   5.5875000000000008E-002    0.30578030324309496     
   5.6250000000000008E-002    0.28998051178058737     
   5.6625000000000009E-002    0.27060435804596983     
   5.7000000000000009E-002    0.24862063407004112     
   5.7375000000000009E-002    0.22446922626150145     
   5.7750000000000010E-002    0.19923156221901331     
   5.8125000000000010E-002    0.17358318158874703     
   5.8500000000000010E-002    0.14800939833960686     
   5.8875000000000011E-002    0.12340706392378348     
   5.9250000000000011E-002     9.9921279795398679E-002
   5.9624999999999997E-002     7.8105898083792244E-002
   5.9999999999999998E-002     5.8021806099560910E-002
   6.0374999999999998E-002     3.9718834023943508E-002
   6.0749999999999998E-002     2.3265576616687763E-002
   6.1124999999999999E-002     8.2967214754273346E-003
   6.1499999999999999E-002    -5.2417167330002677E-003
   6.1874999999999999E-002    -1.7746466278438844E-002
   6.2250000000000000E-002    -2.9502487875244364E-002
   6.2625000000000000E-002    -4.0670007195559313E-002
   6.3000000000000000E-002    -5.1653803538338608E-002
   6.3375000000000001E-002    -6.2427428215992162E-002
   6.3750000000000001E-002    -7.3087282227716613E-002
   6.4125000000000001E-002    -8.3716228641275536E-002
   6.4500000000000002E-002    -9.3917651974871341E-002
   6.4875000000000002E-002   -0.10380322677467485     
   6.5250000000000002E-002   -0.11291267987974971     
   6.5625000000000003E-002   -0.12112236898421394     
   6.6000000000000003E-002   -0.12813597651971320     
   6.6375000000000003E-002   -0.13365136484563381     
   6.6750000000000004E-002   -0.13771564813160009     
   6.7125000000000004E-002   -0.13992451492666444     
   6.7500000000000004E-002   -0.14033294739336821     
   6.7875000000000005E-002   -0.13894611988946248     
   6.8250000000000005E-002   -0.13575630079807027     
   6.8625000000000005E-002   -0.13081667428504173     
   6.9000000000000006E-002   -0.12434659503338182     
   6.9375000000000006E-002   -0.11644682493274362     
   6.9750000000000006E-002   -0.10714778630002146     
   7.0125000000000007E-002    -9.6998678590213189E-002
   7.0500000000000007E-002    -8.5699500729561701E-002
   7.0875000000000007E-002    -7.3674142659839542E-002
   7.1250000000000008E-002    -6.1071603516465525E-002
   7.1625000000000008E-002    -4.7915487046502420E-002
   7.2000000000000008E-002    -3.4546417818756156E-002
   7.2375000000000009E-002    -2.0954062171003499E-002
   7.2750000000000009E-002    -7.5566913182795016E-003
   7.3125000000000009E-002     5.7046649638347619E-003
   7.3500000000000010E-002     1.8359882755241211E-002
   7.3875000000000010E-002     3.0228174996108890E-002
   7.4250000000000010E-002     4.1503373231880455E-002
   7.4625000000000011E-002     5.1451645913622175E-002
   7.5000000000000011E-002     6.0236108847097625E-002
   7.5375000000000011E-002     6.7766355408604734E-002
   7.5750000000000012E-002     7.3782369072939363E-002
   7.6124999999999998E-002     7.8354799937801839E-002
   7.6499999999999999E-002     8.1537825425321842E-002
   7.6874999999999999E-002     8.3262600880538398E-002
   7.7249999999999999E-002     8.3758485289980977E-002
   7.7625000000000000E-002     8.3327561191598648E-002
   7.8000000000000000E-002     8.1825354663502381E-002
   7.8375000000000000E-002     7.9617553873144384E-002
   7.8750000000000001E-002     7.6960068242266103E-002
   7.9125000000000001E-002     7.3855872128649802E-002
   7.9500000000000001E-002     7.0447100194241552E-002
   7.9875000000000002E-002     6.6765771911378072E-002
   8.0250000000000002E-002     6.2996728940025851E-002
   8.0625000000000002E-002     5.9044015954753747E-002
   8.1000000000000003E-002     5.4802175727519137E-002
   8.1375000000000003E-002     5.0416716946100129E-002
   8.1750000000000003E-002     4.5601715858310403E-002
   8.2125000000000004E-002     4.0449800550867762E-002
   8.2500000000000004E-002     3.4841993531712009E-002
   8.2875000000000004E-002     2.8756840053643772E-002
   8.3250000000000005E-002     2.2235864170845276E-002
   8.3625000000000005E-002     1.5408152001515844E-002
   8.4000000000000005E-002     8.4068628460012423E-003
   8.4375000000000006E-002     1.3163113263658110E-003
   8.4750000000000006E-002    -5.7118330580637798E-003
   8.5125000000000006E-002    -1.2367586463252969E-002
   8.5500000000000007E-002    -1.8778950433715899E-002
   8.5875000000000007E-002    -2.4574240834305983E-002
   8.6250000000000007E-002    -2.9873548107276673E-002
   8.6625000000000008E-002    -3.4675275114553809E-002
   8.7000000000000008E-002    -3.8790738493301745E-002
   8.7375000000000008E-002    -4.2302973281836576E-002
   8.7750000000000009E-002    -4.5426424484824174E-002
   8.8125000000000009E-002    -4.7997578403002575E-002
   8.8500000000000009E-002    -5.0101453479532626E-002
   8.8875000000000010E-002    -5.1879468769190112E-002
   8.9250000000000010E-002    -5.3217022016029271E-002
   8.9625000000000010E-002    -5.4049381040623165E-002
   9.0000000000000011E-002    -5.4438554719778688E-002
   9.0375000000000011E-002    -5.4181050547951429E-002
   9.0750000000000011E-002    -5.3179711047366664E-002
   9.1125000000000012E-002    -5.1422565075723570E-002
   9.1500000000000012E-002    -4.8932787708108126E-002
   9.1875000000000012E-002    -4.5605119176322255E-002
   9.2250000000000013E-002    -4.1449341993955363E-002
   9.2624999999999999E-002    -3.6845258388940288E-002
   9.2999999999999999E-002    -3.1728359712712234E-002
   9.3375000000000000E-002    -2.6150161389167922E-002
   9.3750000000000000E-002    -2.0645756717463278E-002
   9.4125000000000000E-002    -1.5136104285982572E-002
   9.4500000000000001E-002    -9.6841023630087897E-003
   9.4875000000000001E-002    -4.8178985566425716E-003
   9.5250000000000001E-002    -2.4061231828770616E-004
   9.5625000000000002E-002     3.9475308344243069E-003
   9.6000000000000002E-002     7.5556898768725234E-003
   9.6375000000000002E-002     1.0751014636049794E-002
   9.6750000000000003E-002     1.3841628520162160E-002
   9.7125000000000003E-002     1.6537703179416528E-002
   9.7500000000000003E-002     1.9233166729851588E-002
   9.7875000000000004E-002     2.1807417469018958E-002
   9.8250000000000004E-002     2.4359196834124939E-002
   9.8625000000000004E-002     2.6791481917511611E-002
   9.9000000000000005E-002     2.9066713123719522E-002
   9.9375000000000005E-002     3.1266390155179666E-002
   9.9750000000000005E-002     3.2962190339785105E-002
  0.10012500000000001          3.4329024932204695E-002
  0.10050000000000001          3.5486923481732484E-002
  0.10087500000000001          3.5763424644134754E-002
  0.10125000000000001          3.5707215097979791E-002
  0.10162500000000001          3.5196553270125920E-002
  0.10200000000000001          3.3898094939937104E-002
  0.10237500000000001          3.2266090845551820E-002
  0.10275000000000001          3.0280052259413586E-002
  0.10312500000000001          2.7839247134299035E-002
  0.10350000000000001          2.5215906322120563E-002
  0.10387500000000001          2.2576125032283026E-002
  0.10425000000000001          1.9877227172095849E-002
  0.10462500000000001          1.7142716828070122E-002
  0.10500000000000001          1.4707716059385288E-002
  0.10537500000000001          1.2307707779771224E-002
  0.10575000000000001          9.8895784952515459E-003
  0.10612500000000001          7.6857519541797996E-003
  0.10650000000000001          5.2996719688424929E-003
  0.10687500000000001          2.6652604849175992E-003
  0.10725000000000001         -4.7464905139960750E-005
  0.10762500000000001         -3.1005628890872902E-003
  0.10800000000000001         -6.3535321812128289E-003
  0.10837500000000001         -9.7129640960008194E-003
  0.10875000000000001         -1.2993045426862341E-002
  0.10912500000000000         -1.6024315316701176E-002
  0.10950000000000000         -1.8709708040569456E-002
  0.10987500000000000         -2.0819166162343535E-002
  0.11025000000000000         -2.2401812400443807E-002
  0.11062500000000001         -2.3531444299577448E-002
  0.11100000000000000         -2.4090413071513030E-002
  0.11137500000000002         -2.4451387306759689E-002
  0.11175000000000000         -2.4614847267792339E-002
  0.11212500000000002         -2.4401465392330794E-002
  0.11250000000000000         -2.4176424962909771E-002
  0.11287500000000002         -2.3729322783287925E-002
  0.11325000000000000         -2.2847098685664907E-002
  0.11362500000000002         -2.1874015273770142E-002
  0.11400000000000000         -2.0620840931455324E-002
  0.11437500000000002         -1.8985407380141775E-002
  0.11475000000000000         -1.7315722106015820E-002
  0.11512500000000002         -1.5706366714647688E-002
  0.11550000000000001         -1.3891510987232666E-002
  0.11587500000000002         -1.2182186013824127E-002
  0.11625000000000001         -1.0632136885214510E-002
  0.11662500000000002         -8.8551106860825894E-003
  0.11700000000000001         -7.1332794795150303E-003
  0.11737499999999999         -5.3578522816490615E-003
  0.11775000000000001         -3.3216378206682739E-003
  0.11812499999999999         -1.3060452746262632E-003
  0.11850000000000001          6.9058082582702969E-004
  0.11887499999999999          2.6609057878727508E-003
  0.11925000000000001          4.6011222980309012E-003
  0.11962500000000000          6.2264520636792896E-003
  0.12000000000000001          7.6704603185311646E-003
  0.12037500000000000          9.0343989585237611E-003
  0.12075000000000001          1.0139637841128630E-002
  0.12112500000000000          1.1120248123928750E-002
  0.12150000000000001          1.2119983482025143E-002
  0.12187500000000000          1.2925961899562301E-002
  0.12225000000000001          1.3815153377782921E-002
  0.12262500000000000          1.4708054697743517E-002
  0.12300000000000001          1.5469578612040952E-002
  0.12337500000000000          1.6213838979421375E-002
  0.12375000000000001          1.6863213912949763E-002
  0.12412500000000000          1.7296108445223023E-002
  0.12450000000000001          1.7477155994780398E-002
  0.12487500000000000          1.7205112643267982E-002
  0.12525000000000003          1.6708374467828573E-002
  0.12562499999999999          1.5721769731277136E-002
  0.12600000000000000          1.4325053353916640E-002
  0.12637500000000002          1.2766019445925579E-002
  0.12675000000000003          1.0856339049267588E-002
  0.12712499999999999          8.8814000320509047E-003
  0.12750000000000000          7.0912511109040999E-003
  0.12787500000000002          5.2511889855666625E-003
  0.12825000000000003          3.5401894230886947E-003
  0.12862499999999999          2.2798905671293358E-003
  0.12900000000000000          1.0805307040210634E-003
  0.12937500000000002          7.9454164065789642E-005
  0.12975000000000003         -6.2368315979482840E-004
  0.13012499999999999         -1.2945653028996252E-003
  0.13050000000000000         -1.9739565050081358E-003
  0.13087500000000002         -2.5158486974449163E-003
  0.13125000000000003         -3.2825325241133728E-003
  0.13162499999999999         -4.2627900160196993E-003
  0.13200000000000001         -5.3110183611060277E-003
  0.13237500000000002         -6.4673569658141045E-003
  0.13275000000000003         -7.8684619778551894E-003
  0.13312499999999999         -9.2263100270868481E-003
  0.13350000000000001         -1.0351571041200078E-002
  0.13387500000000002         -1.1457121494707291E-002
  0.13424999999999998         -1.2123923698477332E-002
  0.13462499999999999         -1.2470872042380961E-002
  0.13500000000000001         -1.2575735872797930E-002
  0.13537500000000002         -1.2229850193921447E-002
  0.13574999999999998         -1.1543743259421204E-002
  0.13612500000000000         -1.0802132984378068E-002
  0.13650000000000001         -9.8163051996785142E-003
  0.13687500000000002         -8.7335313770596692E-003
  0.13724999999999998         -7.7033313412171681E-003
  0.13762500000000000         -6.8557591099365003E-003
  0.13800000000000001         -6.0590120854043840E-003
  0.13837500000000003         -5.5054821336309161E-003
  0.13874999999999998         -5.1102085122020679E-003
  0.13912500000000000         -4.7885199067758096E-003
  0.13950000000000001         -4.5142027342835022E-003
  0.13987500000000003         -4.2803076837714272E-003
  0.14024999999999999         -3.7585767762029158E-003
  0.14062500000000000         -3.0273593486800478E-003
  0.14100000000000001         -2.2054011376303889E-003
  0.14137500000000003         -1.0411874419527108E-003
  0.14174999999999999          2.8880837834189611E-004
  0.14212500000000000          1.7282738363719882E-003
  0.14250000000000002          3.1594551481055411E-003
  0.14287500000000003          4.5431711626101479E-003
  0.14324999999999999          5.7922847970890831E-003
  0.14362500000000000          6.8153491777621835E-003
  0.14400000000000002          7.5937917158714376E-003
  0.14437500000000003          8.0253974512880764E-003
  0.14474999999999999          8.1288498864997526E-003
  0.14512500000000000          8.0309708885829036E-003
  0.14550000000000002          7.7307518153135312E-003
  0.14587500000000003          7.2292752986955434E-003
  0.14624999999999999          6.7714626326319683E-003
  0.14662500000000001          6.4770756182342404E-003
  0.14700000000000002          6.1181152145315318E-003
  0.14737500000000003          6.0835572962021928E-003
  0.14774999999999999          6.1751760003898228E-003
  0.14812500000000001          6.2362610912529539E-003
  0.14850000000000002          6.4471788585288708E-003
  0.14887500000000004          6.6826431137116298E-003
  0.14924999999999999          6.6002883447181171E-003
  0.14962500000000001          6.5396834014546813E-003
  0.15000000000000002          6.2208614297764881E-003
  0.15037499999999998          5.5980650625733208E-003
  0.15075000000000000          4.7900342932728377E-003
  0.15112500000000001          3.7195310580718098E-003
  0.15150000000000002          2.4741639662697228E-003
  0.15187499999999998          1.1266920527091601E-003
  0.15225000000000000         -2.2186057050219301E-004
  0.15262500000000001         -1.4847598690987535E-003
  0.15300000000000002         -2.5775562612813229E-003
  0.15337499999999998         -3.3861796565111974E-003
  0.15375000000000000         -3.9619429966330118E-003
  0.15412500000000001         -4.2613705328296732E-003
  0.15450000000000003         -4.3017891794692332E-003
  0.15487499999999998         -4.2641439930569368E-003
  0.15525000000000000         -4.0268764140023554E-003
  0.15562500000000001         -3.8367242021881557E-003
  0.15600000000000003         -3.7089256452236220E-003
  0.15637499999999999         -3.6338676448990151E-003
  0.15675000000000000         -3.7112790744312867E-003
  0.15712500000000001         -3.9845557861956519E-003
  0.15750000000000003         -4.3486560725216859E-003
  0.15787499999999999         -4.8756453768232294E-003
  0.15825000000000000         -5.3691898970904947E-003
  0.15862500000000002         -5.9271228449549697E-003
  0.15900000000000003         -6.3606360472259812E-003
  0.15937499999999999         -6.4510852355780454E-003
  0.15975000000000000         -6.5213630546377627E-003
  0.16012500000000002         -6.1579352627200374E-003
  0.16050000000000003         -5.5376440759409380E-003
  0.16087499999999999         -4.7666391684509472E-003
  0.16125000000000000         -3.7492095752977750E-003
  0.16162500000000002         -2.6944026320690922E-003
  0.16200000000000003         -1.6500130815356858E-003
  0.16237499999999999         -6.8884386806318196E-004
  0.16275000000000001          8.1754037509257992E-005
  0.16312500000000002          6.8407644180981512E-004
  0.16350000000000003          9.8769952107294052E-004
  0.16387499999999999          1.1136436586314390E-003
  0.16425000000000001          1.1340176661729469E-003
  0.16462500000000002          9.0477379475733112E-004
  0.16500000000000004          7.5620140762369225E-004
  0.16537499999999999          6.5219283706914968E-004
  0.16575000000000001          6.6926379701652441E-004
  0.16612500000000002          9.1076841088305962E-004
  0.16650000000000004          1.3108799072554453E-003
  0.16687500000000000          1.9570664781602821E-003
  0.16725000000000001          2.7245321482472834E-003
  0.16762500000000002          3.5213310057234663E-003
  0.16799999999999998          4.3031684777772175E-003
  0.16837500000000000          4.8868719124850208E-003
  0.16875000000000001          5.3207197627879168E-003
  0.16912500000000003          5.4989845499715667E-003
  0.16949999999999998          5.3481942675126549E-003
  0.16987500000000000          4.9593877332519340E-003
  0.17025000000000001          4.3970409311430512E-003
  0.17062500000000003          3.6413559012889694E-003
  0.17099999999999999          2.8740274652667760E-003
  0.17137500000000000          2.1131589738462245E-003
  0.17175000000000001          1.4755195677802087E-003
  0.17212500000000003          1.0521979356305393E-003
  0.17249999999999999          8.3061440230398984E-004
  0.17287500000000000          8.2309924378137669E-004
  0.17325000000000002          9.9339108276142764E-004
  0.17362500000000003          1.3206671798298790E-003
  0.17399999999999999          1.6658960519434383E-003
  0.17437500000000000          1.9668085433317195E-003
  0.17475000000000002          2.1083237581468904E-003
  0.17512500000000003          2.0190589867078472E-003
  0.17549999999999999          1.7471089912656427E-003
  0.17587500000000000          1.2069152703773393E-003
  0.17625000000000002          4.6511969158819150E-004
  0.17662500000000003         -4.6034189687743497E-004
  0.17699999999999999         -1.3694713441301765E-003
  0.17737500000000000         -2.2400538198904104E-003
  0.17775000000000002         -3.0679732640098317E-003
  0.17812500000000003         -3.6319878291276126E-003
  0.17849999999999999         -3.9632538526782543E-003
  0.17887500000000001         -4.0247094828740285E-003
  0.17925000000000002         -3.7839156629225390E-003
  0.17962500000000003         -3.3793462102596874E-003
  0.17999999999999999         -2.8568491525699049E-003
  0.18037500000000001         -2.1522248064809752E-003
  0.18075000000000002         -1.5468792099917307E-003
  0.18112500000000004         -1.1488940899264421E-003
  0.18149999999999999         -8.6186044671165410E-004
  0.18187500000000001         -7.5585257520581852E-004
  0.18225000000000002         -9.6903339778532671E-004
  0.18262500000000004         -1.2676259144207573E-003
  0.18300000000000000         -1.7445564963617067E-003
  0.18337500000000001         -2.2993772229323523E-003
  0.18375000000000002         -2.6201055480642296E-003
  0.18412499999999998         -2.9749255590620039E-003
  0.18450000000000000         -3.1690683202537651E-003
  0.18487500000000001         -2.9766625223940032E-003
  0.18525000000000003         -2.6715687751743275E-003
  0.18562499999999998         -2.0568129938647647E-003
  0.18600000000000000         -1.3247617659600027E-003
  0.18637500000000001         -4.6203582062722960E-004
  0.18675000000000003          4.2059603327456916E-004
  0.18712499999999999          1.2323468683654677E-003
  0.18750000000000000          1.9055777543563195E-003
  0.18787500000000001          2.2902322458567517E-003
  0.18825000000000003          2.4253616129406115E-003
  0.18862499999999999          2.4624049958404800E-003
  0.18900000000000000          2.1088969993200537E-003