  -1.4999999999999999E-002     0.0000000000000000     
  -1.4624999999999999E-002     0.0000000000000000     
  -1.4249999999999999E-002     0.0000000000000000     
  -1.3874999999999998E-002     0.0000000000000000     
  -1.3500000000000000E-002     0.0000000000000000     
  -1.3125000000000000E-002     0.0000000000000000     
  -1.2749999999999999E-002     0.0000000000000000     
  -1.2374999999999999E-002     0.0000000000000000     
  -1.2000000000000000E-002     0.0000000000000000     
  -1.1625000000000000E-002     0.0000000000000000     
  -1.1250000000000000E-002     0.0000000000000000     
  -1.0874999999999999E-002     0.0000000000000000     
  -1.0499999999999999E-002     0.0000000000000000     
  -1.0124999999999999E-002     0.0000000000000000     
  -9.7499999999999983E-003     0.0000000000000000     
  -9.3749999999999979E-003     0.0000000000000000     
  -8.9999999999999993E-003     0.0000000000000000     
  -8.6249999999999990E-003     0.0000000000000000     
  -8.2500000000000004E-003     0.0000000000000000     
  -7.8750000000000001E-003     0.0000000000000000     
  -7.4999999999999989E-003     0.0000000000000000     
  -7.1249999999999994E-003     0.0000000000000000     
  -6.7499999999999991E-003     0.0000000000000000     
  -6.3749999999999987E-003     0.0000000000000000     
  -5.9999999999999984E-003     0.0000000000000000     
  -5.6249999999999998E-003     0.0000000000000000     
  -5.2499999999999995E-003     0.0000000000000000     
  -4.8749999999999991E-003     0.0000000000000000     
  -4.4999999999999988E-003     0.0000000000000000     
  -4.1249999999999985E-003     0.0000000000000000     
  -3.7499999999999981E-003     0.0000000000000000     
  -3.3749999999999995E-003     0.0000000000000000     
  -2.9999999999999992E-003     0.0000000000000000     
  -2.6249999999999989E-003     0.0000000000000000     
  -2.2499999999999985E-003     0.0000000000000000     
  -1.8749999999999982E-003     0.0000000000000000     
  -1.4999999999999996E-003     0.0000000000000000     
  -1.1249999999999993E-003     0.0000000000000000     
  -7.4999999999999893E-004     0.0000000000000000     
  -3.7499999999999860E-004     0.0000000000000000     
   1.7347234759768071E-018     0.0000000000000000     
   3.7500000000000207E-004     0.0000000000000000     
   7.5000000000000067E-004     0.0000000000000000     
   1.1250000000000010E-003     0.0000000000000000     
   1.5000000000000013E-003     0.0000000000000000     
   1.8750000000000017E-003     0.0000000000000000     
   2.2500000000000020E-003     0.0000000000000000     
   2.6250000000000023E-003     0.0000000000000000     
   3.0000000000000027E-003     0.0000000000000000     
   3.3750000000000030E-003     0.0000000000000000     
   3.7499999999999999E-003     0.0000000000000000     
   4.1250000000000002E-003     0.0000000000000000     
   4.5000000000000005E-003     0.0000000000000000     
   4.8750000000000009E-003     0.0000000000000000     
   5.2500000000000012E-003     0.0000000000000000     
   5.6250000000000015E-003     0.0000000000000000     
   6.0000000000000019E-003     0.0000000000000000     
   6.3750000000000022E-003     0.0000000000000000     
   6.7500000000000025E-003     0.0000000000000000     
   7.1250000000000029E-003     0.0000000000000000     
   7.5000000000000032E-003     0.0000000000000000     
   7.8750000000000001E-003     0.0000000000000000     
   8.2500000000000004E-003     0.0000000000000000     
   8.6250000000000007E-003     0.0000000000000000     
   9.0000000000000011E-003     0.0000000000000000     
   9.3750000000000014E-003     0.0000000000000000     
   9.7500000000000017E-003     0.0000000000000000     
   1.0125000000000002E-002     0.0000000000000000     
   1.0500000000000002E-002     3.6914767022272521E-052
   1.0875000000000003E-002    -1.1090605760068346E-050
   1.1250000000000003E-002     3.2685620495676678E-037
   1.1625000000000003E-002    -3.7616217999684703E-035
   1.2000000000000000E-002    -6.9224315840008445E-034
   1.2375000000000001E-002    -8.5465320908423762E-033
   1.2750000000000001E-002    -3.6823450364019880E-032
   1.3125000000000001E-002     3.6927895721251909E-031
   1.3500000000000002E-002     1.8912162920447915E-030
   1.3875000000000002E-002    -1.5191860162643769E-029
   1.4250000000000002E-002    -9.5000935620431153E-030
   1.4625000000000003E-002     4.2469536226173328E-028
   1.5000000000000003E-002    -2.1231618754994712E-027
   1.5375000000000003E-002     5.5127742306939242E-027
   1.5750000000000004E-002    -7.1968457522318046E-027
   1.6125000000000000E-002    -1.0662371048686948E-026
   1.6500000000000001E-002     1.2805423417002063E-025
   1.6875000000000001E-002     3.7196727236355066E-024
   1.7250000000000001E-002     1.2034382894749218E-023
   1.7625000000000002E-002     4.7302078524965036E-023
   1.8000000000000002E-002     1.7770027290285494E-022
   1.8375000000000002E-002     6.6497124669863973E-022
   1.8750000000000003E-002     2.4382353969677300E-021
   1.9125000000000003E-002     8.7775851821760149E-021
   1.9500000000000003E-002     3.1029137081983593E-020
   1.9875000000000004E-002     1.0769258524581986E-019
   2.0250000000000004E-002     3.6697943588573798E-019
   2.0625000000000004E-002     1.2277759646987806E-018
   2.1000000000000005E-002     4.0328931764349590E-018
   2.1375000000000005E-002     1.3005328744195098E-017
   2.1750000000000005E-002     4.1174804911487295E-017
   2.2125000000000006E-002     1.2797658534641805E-016
   2.2499999999999999E-002     3.9049374281663257E-016
   2.2875000000000000E-002     1.1696852994343835E-015
   2.3250000000000000E-002     3.4394427341005531E-015
   2.3625000000000000E-002     9.9279103973159520E-015
   2.4000000000000000E-002     2.8129757397050782E-014
   2.4375000000000001E-002     7.8235468175115457E-014
   2.4750000000000001E-002     2.1357689381310012E-013
   2.5125000000000001E-002     5.7227317496670634E-013
   2.5500000000000002E-002     1.5050165323843041E-012
   2.5875000000000002E-002     3.8846016825617960E-012
   2.6250000000000002E-002     9.8402409187025813E-012
   2.6625000000000003E-002     2.4462388023875031E-011
   2.7000000000000003E-002     5.9677274511908384E-011
   2.7375000000000003E-002     1.4286156346797729E-010
   2.7750000000000004E-002     3.3558036038591770E-010
   2.8125000000000004E-002     7.7344404839404943E-010
   2.8500000000000004E-002     1.7489924056598031E-009
   2.8875000000000005E-002     3.8801170664722372E-009
   2.9250000000000005E-002     8.4446305987676434E-009
   2.9625000000000005E-002     1.8027978941747404E-008
   3.0000000000000006E-002     3.7751136668898876E-008
   3.0375000000000006E-002     7.7531698986743209E-008
   3.0750000000000000E-002     1.5615883092866401E-007
   3.1125000000000000E-002     3.0841906293601910E-007
   3.1500000000000000E-002     5.9725692150112554E-007
   3.1875000000000001E-002     1.1339124320128858E-006
   3.2250000000000001E-002     2.1102512175899423E-006
   3.2625000000000001E-002     3.8492115968626510E-006
   3.3000000000000002E-002     6.8805445658195012E-006
   3.3375000000000002E-002     1.2050753505239196E-005
   3.3750000000000002E-002     2.0676020761091146E-005
   3.4125000000000003E-002     3.4744574522651632E-005
   3.4500000000000003E-002     5.7171716590298112E-005
   3.4875000000000003E-002     9.2092770273084003E-005
   3.5250000000000004E-002     1.4517863688684397E-004
   3.5625000000000004E-002     2.2390391023118921E-004
   3.6000000000000004E-002     3.3770667515155978E-004
   3.6375000000000005E-002     4.9790333226032392E-004
   3.6750000000000005E-002     7.1723317003482114E-004
   3.7125000000000005E-002     1.0088480940192485E-003
   3.7500000000000006E-002     1.3846578103203174E-003
   3.7875000000000006E-002     1.8528727406959865E-003
   3.8250000000000006E-002     2.4149278348383988E-003
   3.8625000000000007E-002     3.0618441805066073E-003
   3.9000000000000000E-002     3.7706502262662587E-003
   3.9375000000000000E-002     4.5015905547469183E-003
   3.9750000000000001E-002     5.1966427241868793E-003
   4.0125000000000001E-002     5.7813482318814554E-003
   4.0500000000000001E-002     6.1685436629631343E-003
   4.0875000000000002E-002     6.2687062779901142E-003
   4.1250000000000002E-002     6.0003370091903192E-003
   4.1625000000000002E-002     5.3072783744817775E-003
   4.2000000000000003E-002     4.1715994736960596E-003
   4.2375000000000003E-002     2.6303443798275927E-003
   4.2750000000000003E-002     7.7803671925566519E-004
   4.3125000000000004E-002    -1.2273297874946922E-003
   4.3500000000000004E-002    -3.1877518378070771E-003
   4.3875000000000004E-002    -4.8783568863015941E-003
   4.4250000000000005E-002    -6.0918367730503683E-003
   4.4625000000000005E-002    -6.6743836596960355E-003
   4.5000000000000005E-002    -6.5657006000910782E-003
   4.5375000000000006E-002    -5.8346348031076845E-003
   4.5750000000000006E-002    -4.6855642495152224E-003
   4.6125000000000006E-002    -3.4600839554611738E-003
   4.6500000000000007E-002    -2.5965872612619674E-003
   4.6875000000000007E-002    -2.5779462437818179E-003
   4.7250000000000000E-002    -3.8533137921592285E-003
   4.7625000000000001E-002    -6.7700249532350026E-003
   4.8000000000000001E-002    -1.1480594068241803E-002
   4.8375000000000001E-002    -1.7915573191759855E-002
   4.8750000000000002E-002    -2.5744678326422285E-002
   4.9125000000000002E-002    -3.4391171417652529E-002
   4.9500000000000002E-002    -4.3101961158614963E-002
   4.9875000000000003E-002    -5.1012626987510662E-002
   5.0250000000000003E-002    -5.7252893738972035E-002
   5.0625000000000003E-002    -6.1057550469839683E-002
   5.1000000000000004E-002    -6.1857666167837569E-002
   5.1375000000000004E-002    -5.9332499104359754E-002
   5.1750000000000004E-002    -5.3465962277947060E-002
   5.2125000000000005E-002    -4.4511354536316633E-002
   5.2500000000000005E-002    -3.2964793981015247E-002
   5.2875000000000005E-002    -1.9489733819783469E-002
   5.3250000000000006E-002    -4.8319437666899693E-003
   5.3625000000000006E-002     1.0268685244741093E-002
   5.4000000000000006E-002     2.5153850363286243E-002
   5.4375000000000007E-002     3.9286255572283116E-002
   5.4750000000000007E-002     5.2302680022049831E-002
   5.5125000000000007E-002     6.3983729129108019E-002
   5.5500000000000008E-002     7.4254913804415498E-002
   5.5875000000000008E-002     8.3126884247289368E-002
   5.6250000000000008E-002     9.0665051187401813E-002
   5.6625000000000009E-002     9.6922215495251582E-002
   5.7000000000000009E-002    0.10192420612985742     
   5.7375000000000009E-002    0.10563823327958667     
   5.7750000000000010E-002    0.10794203328779459     
   5.8125000000000010E-002    0.10868761346577488     
   5.8500000000000010E-002    0.10766261564676595     
   5.8875000000000011E-002    0.10464752966661189     
   5.9250000000000011E-002     9.9451150925917428E-002
   5.9624999999999997E-002     9.1909575097313914E-002
   5.9999999999999998E-002     8.1921204372151640E-002
   6.0374999999999998E-002     6.9464267462283333E-002
   6.0749999999999998E-002     5.4591776248956322E-002
   6.1124999999999999E-002     3.7446326484111531E-002
   6.1499999999999999E-002     1.8272843994144541E-002
   6.1874999999999999E-002    -2.6006099790844830E-003
   6.2250000000000000E-002    -2.4687090059843753E-002
   6.2625000000000000E-002    -4.7428982010482422E-002
   6.3000000000000000E-002    -7.0095578692733002E-002
   6.3375000000000001E-002    -9.1866529154614032E-002
   6.3750000000000001E-002   -0.11182489169165077     
   6.4125000000000001E-002   -0.12900537759004427     
   6.4500000000000002E-002   -0.14247299057449719     
   6.4875000000000002E-002   -0.15137159433023045     
   6.5250000000000002E-002   -0.15504276393957261     
   6.5625000000000003E-002   -0.15305827270437702     
   6.6000000000000003E-002   -0.14528229364342496     
   6.6375000000000003E-002   -0.13193387542488585     
   6.6750000000000004E-002   -0.11352732816397476     
   6.7125000000000004E-002    -9.0885635786118441E-002
   6.7500000000000004E-002    -6.5069030196624258E-002
   6.7875000000000005E-002    -3.7300079662549890E-002
   6.8250000000000005E-002    -8.8902509352382642E-003
   6.8625000000000005E-002     1.8820417648360236E-002
   6.9000000000000006E-002     4.4547349110439650E-002
   6.9375000000000006E-002     6.7085134547763367E-002
   6.9750000000000006E-002     8.5371946924138506E-002
   7.0125000000000007E-002     9.8478572929058705E-002
   7.0500000000000007E-002    0.10568028393017390     
   7.0875000000000007E-002    0.10647666916964899     
   7.1250000000000008E-002    0.10059033761429588     
   7.1625000000000008E-002     8.8076156381997048E-002
   7.2000000000000008E-002     6.9301470693517511E-002
   7.2375000000000009E-002     4.5004298646074040E-002
   7.2750000000000009E-002     1.6307897792420242E-002
   7.3125000000000009E-002    -1.5320519371692536E-002
   7.3500000000000010E-002    -4.8089710170290706E-002
   7.3875000000000010E-002    -7.9997793495356420E-002
   7.4250000000000010E-002   -0.10895726387352875     
   7.4625000000000011E-002   -0.13291493006231200     
   7.5000000000000011E-002   -0.15006332244222947     
   7.5375000000000011E-002   -0.15897506926027835     
   7.5750000000000012E-002   -0.15873565779116680     
   7.6124999999999998E-002   -0.14911976384878584     
   7.6499999999999999E-002   -0.13052680616208900     
   7.6874999999999999E-002   -0.10407980727216536     
   7.7249999999999999E-002    -7.1468682441056447E-002
   7.7625000000000000E-002    -3.4813406807747145E-002
   7.8000000000000000E-002     3.5325958485906304E-003
   7.8375000000000000E-002     4.1201612401884309E-002
   7.8750000000000001E-002     7.6078814360831679E-002
   7.9125000000000001E-002    0.10645054729965481     
   7.9500000000000001E-002    0.13113322233670974     
   7.9875000000000002E-002    0.14958737259915983     
   8.0250000000000002E-002    0.16177887456758000     
   8.0625000000000002E-002    0.16814572506884456     
   8.1000000000000003E-002    0.16940124507190593     
   8.1375000000000003E-002    0.16633461862362325     
   8.1750000000000003E-002    0.15962015164494303     
   8.2125000000000004E-002    0.14975104912035558     
   8.2500000000000004E-002    0.13686680820132952     
   8.2875000000000004E-002    0.12089182127577291     
   8.3250000000000005E-002    0.10157391343768321     
   8.3625000000000005E-002     7.8648659842686375E-002
   8.4000000000000005E-002     5.2058572009180959E-002
   8.4375000000000006E-002     2.2095826205372950E-002
   8.4750000000000006E-002    -1.0386069522505828E-002
   8.5125000000000006E-002    -4.4042525236617142E-002
   8.5500000000000007E-002    -7.6922627414054368E-002
   8.5875000000000007E-002   -0.10669524788436058     
   8.6250000000000007E-002   -0.13085651232550066     
   8.6625000000000008E-002   -0.14698721583541535     
   8.7000000000000008E-002   -0.15308882176912250     
   8.7375000000000008E-002   -0.14789383325578651     
   8.7750000000000009E-002   -0.13109950086802549     
   8.8125000000000009E-002   -0.10354959246324617     
   8.8500000000000009E-002    -6.7236467167279740E-002
   8.8875000000000010E-002    -2.5224798318491840E-002
   8.9250000000000010E-002     1.8628736709172127E-002
   8.9625000000000010E-002     6.0052658368014149E-002
   9.0000000000000011E-002     9.4806962055332303E-002
   9.0375000000000011E-002    0.11920629184498163     
   9.0750000000000011E-002    0.13057278077890397     
   9.1125000000000012E-002    0.12760304437720871     
   9.1500000000000012E-002    0.11056912213990186     
   9.1875000000000012E-002     8.1364830287778217E-002
   9.2250000000000013E-002     4.3262265279324350E-002
   9.2624999999999999E-002     6.0380520748244248E-004
   9.2999999999999999E-002    -4.1777086556014212E-002
   9.3375000000000000E-002    -7.9091939726121746E-002
   9.3750000000000000E-002   -0.10719488629159320     
   9.4125000000000000E-002   -0.12306236424375980     
   9.4500000000000001E-002   -0.12515652626952092     
   9.4875000000000001E-002   -0.11354183369829868     
   9.5250000000000001E-002    -8.9893009524276341E-002
   9.5625000000000002E-002    -5.7203246005930811E-002
   9.6000000000000002E-002    -1.9478027560040034E-002
   9.6375000000000002E-002     1.8834769234537099E-002
   9.6750000000000003E-002     5.3255651113863538E-002
   9.7125000000000003E-002     7.9872214225404400E-002
   9.7500000000000003E-002     9.5686018670725584E-002
   9.7875000000000004E-002     9.8976559923809160E-002
   9.8250000000000004E-002     8.9420128007515795E-002
   9.8625000000000004E-002     6.8162694702353796E-002
   9.9000000000000005E-002     3.7589870412171697E-002
   9.9375000000000005E-002     1.0539298625353230E-003
   9.9750000000000005E-002    -3.7428390262184655E-002
  0.10012500000000001         -7.3767306552332157E-002
  0.10050000000000001        -0.10418101026084965     
  0.10087500000000001        -0.12553495801480771     
  0.10125000000000001        -0.13572589628932691     
  0.10162500000000001        -0.13376074988189840     
  0.10200000000000001        -0.11982531191337906     
  0.10237500000000001         -9.5114955906861490E-002
  0.10275000000000001         -6.1693516002358992E-002
  0.10312500000000001         -2.2186885090849061E-002
  0.10350000000000001          2.0387944837734127E-002
  0.10387500000000001          6.2944866550289774E-002
  0.10425000000000001         0.10243543712118121     
  0.10462500000000001         0.13597469847744015     
  0.10500000000000001         0.16107978878966120     
  0.10537500000000001         0.17556793789798816     
  0.10575000000000001         0.17793709302608043     
  0.10612500000000001         0.16728660557647054     
  0.10650000000000001         0.14361631126018659     
  0.10687500000000001         0.10786477144685377     
  0.10725000000000001          6.1978818913620157E-002
  0.10762500000000001          8.9213884376879091E-003
  0.10800000000000001         -4.7627709135929480E-002
  0.10837500000000001        -0.10340583830097105     
  0.10875000000000001        -0.15407621710934533     
  0.10912500000000000        -0.19565156302940118     
  0.10950000000000000        -0.22483061841130170     
  0.10987500000000000        -0.23945285250668691     
  0.11025000000000000        -0.23858741544629664     
  0.11062500000000001        -0.22271021388552226     
  0.11100000000000000        -0.19340623643127708     
  0.11137500000000002        -0.15328331049772925     
  0.11175000000000000        -0.10556347457344419     
  0.11212500000000002         -5.3650945970349528E-002
  0.11250000000000000         -9.7962458202829721E-004
  0.11287500000000002          4.9443440870099178E-002
  0.11325000000000000          9.5041574323292632E-002
  0.11362500000000002         0.13385128126995352     
  0.11400000000000000         0.16446895812817824     
  0.11437500000000002         0.18608065044006544     
  0.11475000000000000         0.19841106585877982     
  0.11512500000000002         0.20169914018824653     
  0.11550000000000001         0.19684478864501348     
  0.11587500000000002         0.18515234398916511     
  0.11625000000000001         0.16865114287198968     
  0.11662500000000002         0.14967807773547093     
  0.11700000000000001         0.13093656995390454     
  0.11737499999999999         0.11512765655049528     
  0.11775000000000001         0.10452958972880755     
  0.11812499999999999         0.10081230296071064     
  0.11850000000000001         0.10441058467008123     
  0.11887499999999999         0.11448628963193107     
  0.11925000000000001         0.12873691301866497     
  0.11962500000000000         0.14350904557230793     
  0.12000000000000001         0.15415880535199508     
  0.12037500000000000         0.15558611845591175     
  0.12075000000000001         0.14291044702016556     
  0.12112500000000000         0.11216866545934259     
  0.12150000000000001          6.1064970783182890E-002
  0.12187500000000000         -1.0636868942367022E-002
  0.12225000000000001        -0.10070538553756936     
  0.12262500000000000        -0.20451153985071174     
  0.12300000000000001        -0.31529663563596144     
  0.12337500000000000        -0.42480854503896603     
  0.12375000000000001        -0.52400435860108963     
  0.12412500000000000        -0.60407429777464072     
  0.12450000000000001        -0.65726510836933172     
  0.12487500000000000        -0.67780721236176211     
  0.12525000000000003        -0.66264787406341030     
  0.12562499999999999        -0.61158629631466122     
  0.12600000000000000        -0.52765498742849126     
  0.12637500000000002        -0.41665082879594245     
  0.12675000000000003        -0.28653720260407239     
  0.12712499999999999        -0.14668839540906570     
  0.12750000000000000         -6.7669338466639015E-003
  0.12787500000000002         0.12432175781022820     
  0.12825000000000003         0.23930561812271001     
  0.12862499999999999         0.33336057756062026     
  0.12900000000000000         0.40456512709394399     
  0.12937500000000002         0.45355392967272135     
  0.12975000000000003         0.48358237221324851     
  0.13012499999999999         0.49936204771443854     
  0.13050000000000000         0.50631952281400583     
  0.13087500000000002         0.50961045744432687     
  0.13125000000000003         0.51294231710079141     
  0.13162499999999999         0.51823143975509689     
  0.13200000000000001         0.52514433302890162     
  0.13237500000000002         0.53107548503342850     
  0.13275000000000003         0.53193219443576634     
  0.13312499999999999         0.52250926674631359     
  0.13350000000000001         0.49764380837536681     
  0.13387500000000002         0.45300832254957701     
  0.13424999999999998         0.38589167014373466     
  0.13462499999999999         0.29580351360397250     
  0.13500000000000001         0.18463782541929497     
  0.13537500000000002          5.6609126038599494E-002
  0.13574999999999998         -8.1856336764125653E-002
  0.13612500000000000        -0.22298768371230199     
  0.13650000000000001        -0.35815024055247058     
  0.13687500000000002        -0.47890382383079683     
  0.13724999999999998        -0.57740315100520267     
  0.13762500000000000        -0.64767849386555221     
  0.13800000000000001        -0.68594245114863073     
  0.13837500000000003        -0.69092388568612895     
  0.13874999999999998        -0.66426354814080479     
  0.13912500000000000        -0.61017000225177509     
  0.13950000000000001        -0.53465241232447025     
  0.13987500000000003        -0.44526631516814585     
  0.14024999999999999        -0.34976697619060659     
  0.14062500000000000        -0.25491497483385328     
  0.14100000000000001        -0.16648270948047755     
  0.14137500000000003         -8.7806453993110323E-002
  0.14174999999999999         -2.0057351043677500E-002
  0.14212500000000000          3.7256314553628794E-002
  0.14250000000000002          8.6108189482957287E-002
  0.14287500000000003         0.12885092222933683     
  0.14324999999999999         0.16717318318127336     
  0.14362500000000000         0.20174241702092460     
  0.14400000000000002         0.23161370685823079     
  0.14437500000000003         0.25436922361775144     
  0.14474999999999999         0.26659295804873262     
  0.14512500000000000         0.26494726222593079     
  0.14550000000000002         0.24676524549706386     
  0.14587500000000003         0.21118427654272781     
  0.14624999999999999         0.15973457564640989     
  0.14662500000000001          9.6370283509485871E-002
  0.14700000000000002          2.7177531333509558E-002
  0.14737500000000003         -4.0341225458330764E-002
  0.14774999999999999         -9.8347150455399546E-002
  0.14812500000000001        -0.13982773047311153     
  0.14850000000000002        -0.15955563778488630     
  0.14887500000000004        -0.15481665566962532     
  0.14924999999999999        -0.12590319089888838     
  0.14962500000000001         -7.6146039598734228E-002
  0.15000000000000002         -1.0944941365223969E-002
  0.15037499999999998          6.2173520808308874E-002
  0.15075000000000000         0.13499582707189761     
  0.15112500000000001         0.19950150206732706     
  0.15150000000000002         0.24858535754301234     
  0.15187499999999998         0.27698265061969507     
  0.15225000000000000         0.28179991292666806     
  0.15262500000000001         0.26282911518082847     
  0.15300000000000002         0.22232178577101558     
  0.15337499999999998         0.16516619922196921     
  0.15375000000000000          9.7871811867979275E-002
  0.15412500000000001          2.7953928281935873E-002
  0.15450000000000003         -3.6815702112197583E-002
  0.15487499999999998         -8.9698702594645352E-002
  0.15525000000000000        -0.12556459405571568     
  0.15562500000000001        -0.14191344672322048     
  0.15600000000000003        -0.13866850076544140     
  0.15637499999999999        -0.11865471994957699     
  0.15675000000000000         -8.6953907503658334E-002
  0.15712500000000001         -4.9909093380995542E-002
  0.15750000000000003         -1.4400028479247283E-002
  0.15787499999999999          1.3232799132109681E-002
  0.15825000000000000          2.8589619741045562E-002
  0.15862500000000002          2.9201902256567734E-002
  0.15900000000000003          1.5305334314673753E-002
  0.15937499999999999         -1.0286130698015825E-002
  0.15975000000000000         -4.3252708343194675E-002
  0.16012500000000002         -7.7879703196582661E-002
  0.16050000000000003        -0.10854452763650438     
  0.16087499999999999        -0.13052376082877543     
  0.16125000000000000        -0.14041252966543535     
  0.16162500000000002        -0.13695875746685476     
  0.16200000000000003        -0.12072237349103418     
  0.16237499999999999         -9.3848382169072431E-002
  0.16275000000000001         -5.9873708982451007E-002
  0.16312500000000002         -2.2423323752843206E-002
  0.16350000000000003          1.4724468233831112E-002
  0.16387499999999999          4.8320702580969141E-002
  0.16425000000000001          7.6391570689278820E-002
  0.16462500000000002          9.7359250139135503E-002
  0.16500000000000004         0.11073600500430852     
  0.16537499999999999         0.11662815973454553     
  0.16575000000000001         0.11517386666506949     
  0.16612500000000002         0.10696829202905084     
  0.16650000000000004          9.2527794842874711E-002
  0.16687500000000000          7.2385992094437815E-002
  0.16725000000000001          4.7394282737884368E-002
  0.16762500000000002          1.8633870661373942E-002
  0.16799999999999998         -1.2186950123408858E-002
  0.16837500000000000         -4.3150794433540050E-002
  0.16875000000000001         -7.1760924526264758E-002
  0.16912500000000003         -9.5425880583429101E-002
  0.16949999999999998        -0.11198811050595030     
  0.16987500000000000        -0.11944102213828767     
  0.17025000000000001        -0.11694189683047218     
  0.17062500000000003        -0.10473421388735936     
  0.17099999999999999         -8.4012618312989687E-002
  0.17137500000000000         -5.7011939113595131E-002
  0.17175000000000001         -2.6795480940337402E-002
  0.17212500000000003          3.3789713301427254E-003
  0.17249999999999999          3.0512837310392428E-002
  0.17287500000000000          5.1837816522823488E-002
  0.17325000000000002          6.5744247006536388E-002
  0.17362500000000003          7.1527525066439321E-002
  0.17399999999999999          6.9260990903728406E-002
  0.17437500000000000          6.0085090628224230E-002
  0.17475000000000002          4.5648859974185864E-002
  0.17512500000000003          2.7736043844630624E-002
  0.17549999999999999          8.2709032418907778E-003
  0.17587500000000000         -1.0997151722242889E-002
  0.17625000000000002         -2.8730864089388675E-002
  0.17662500000000003         -4.3748977337483119E-002
  0.17699999999999999         -5.5279591443376117E-002
  0.17737500000000000         -6.2605253377205183E-002
  0.17775000000000002         -6.5227459409684690E-002
  0.17812500000000003         -6.2793936765106723E-002
  0.17849999999999999         -5.5121806484387595E-002
  0.17887500000000001         -4.2425492573913808E-002
  0.17925000000000002         -2.5230579183442355E-002
  0.17962500000000003         -4.8639393258904807E-003
  0.17999999999999999          1.6924781092098051E-002
  0.18037500000000001          3.7858810570772082E-002
  0.18075000000000002          5.5473433482204619E-002
  0.18112500000000004          6.7509300042296896E-002
  0.18149999999999999          7.2656198281320417E-002
  0.18187500000000001          7.0845406394137375E-002
  0.18225000000000002          6.3434884156372356E-002
  0.18262500000000004          5.3799945475465807E-002
  0.18300000000000000          4.6364099651644522E-002
  0.18337500000000001          4.5863319442869650E-002
  0.18375000000000002          5.6511787632684732E-002
  0.18412499999999998          8.0240963563163542E-002
  0.18450000000000000         0.11549586677661544     
  0.18487500000000001         0.15705990318037258     
  0.18525000000000003         0.19568463529118038     
  0.18562499999999998         0.21935330968245045     
  0.18600000000000000         0.21581393418048961     
  0.18637500000000001         0.17490464045861576     
  0.18675000000000003          9.1936638926050793E-002
  0.18712499999999999         -3.0081958432838195E-002
  0.18750000000000000        -0.17906152884199317     
  0.18787500000000001        -0.33430629126947509     
  0.18825000000000003        -0.46913128295109130     
  0.18862499999999999        -0.55487279138612988     
  0.18900000000000000        -0.56639858730410242     