  -1.4999999999999999E-002     0.0000000000000000     
  -1.4624999999999999E-002     0.0000000000000000     
  -1.4249999999999999E-002     0.0000000000000000     
  -1.3874999999999998E-002     0.0000000000000000     
  -1.3500000000000000E-002     0.0000000000000000     
  -1.3125000000000000E-002     0.0000000000000000     
  -1.2749999999999999E-002     0.0000000000000000     
  -1.2374999999999999E-002     0.0000000000000000     
  -1.2000000000000000E-002     0.0000000000000000     
  -1.1625000000000000E-002     0.0000000000000000     
  -1.1250000000000000E-002     0.0000000000000000     
  -1.0874999999999999E-002     0.0000000000000000     
  -1.0499999999999999E-002     0.0000000000000000     
  -1.0124999999999999E-002     0.0000000000000000     
  -9.7499999999999983E-003     0.0000000000000000     
  -9.3749999999999979E-003     0.0000000000000000     
  -8.9999999999999993E-003     0.0000000000000000     
  -8.6249999999999990E-003     0.0000000000000000     
  -8.2500000000000004E-003     0.0000000000000000     
  -7.8750000000000001E-003     0.0000000000000000     
  -7.4999999999999989E-003     0.0000000000000000     
  -7.1249999999999994E-003     0.0000000000000000     
  -6.7499999999999991E-003     0.0000000000000000     
  -6.3749999999999987E-003     0.0000000000000000     
  -5.9999999999999984E-003     0.0000000000000000     
  -5.6249999999999998E-003     0.0000000000000000     
  -5.2499999999999995E-003     0.0000000000000000     
  -4.8749999999999991E-003     0.0000000000000000     
  -4.4999999999999988E-003     0.0000000000000000     
  -4.1249999999999985E-003     0.0000000000000000     
  -3.7499999999999981E-003     0.0000000000000000     
  -3.3749999999999995E-003     0.0000000000000000     
  -2.9999999999999992E-003     0.0000000000000000     
  -2.6249999999999989E-003     0.0000000000000000     
  -2.2499999999999985E-003     0.0000000000000000     
  -1.8749999999999982E-003     0.0000000000000000     
  -1.4999999999999996E-003     0.0000000000000000     
  -1.1249999999999993E-003     0.0000000000000000     
  -7.4999999999999893E-004     0.0000000000000000     
  -3.7499999999999860E-004     0.0000000000000000     
   1.7347234759768071E-018     0.0000000000000000     
   3.7500000000000207E-004     0.0000000000000000     
   7.5000000000000067E-004     0.0000000000000000     
   1.1250000000000010E-003     0.0000000000000000     
   1.5000000000000013E-003     0.0000000000000000     
   1.8750000000000017E-003     0.0000000000000000     
   2.2500000000000020E-003     0.0000000000000000     
   2.6250000000000023E-003     0.0000000000000000     
   3.0000000000000027E-003     0.0000000000000000     
   3.3750000000000030E-003     0.0000000000000000     
   3.7499999999999999E-003     0.0000000000000000     
   4.1250000000000002E-003     0.0000000000000000     
   4.5000000000000005E-003     0.0000000000000000     
   4.8750000000000009E-003     0.0000000000000000     
   5.2500000000000012E-003     0.0000000000000000     
   5.6250000000000015E-003     0.0000000000000000     
   6.0000000000000019E-003     0.0000000000000000     
   6.3750000000000022E-003     0.0000000000000000     
   6.7500000000000025E-003     0.0000000000000000     
   7.1250000000000029E-003     0.0000000000000000     
   7.5000000000000032E-003     0.0000000000000000     
   7.8750000000000001E-003     0.0000000000000000     
   8.2500000000000004E-003     0.0000000000000000     
   8.6250000000000007E-003     0.0000000000000000     
   9.0000000000000011E-003     0.0000000000000000     
   9.3750000000000014E-003     0.0000000000000000     
   9.7500000000000017E-003     0.0000000000000000     
   1.0125000000000002E-002     0.0000000000000000     
   1.0500000000000002E-002     0.0000000000000000     
   1.0875000000000003E-002     0.0000000000000000     
   1.1250000000000003E-002     0.0000000000000000     
   1.1625000000000003E-002     0.0000000000000000     
   1.2000000000000000E-002     0.0000000000000000     
   1.2375000000000001E-002     0.0000000000000000     
   1.2750000000000001E-002     0.0000000000000000     
   1.3125000000000001E-002     0.0000000000000000     
   1.3500000000000002E-002     0.0000000000000000     
   1.3875000000000002E-002     0.0000000000000000     
   1.4250000000000002E-002     0.0000000000000000     
   1.4625000000000003E-002     0.0000000000000000     
   1.5000000000000003E-002     0.0000000000000000     
   1.5375000000000003E-002    -1.3330949274593794E-037
   1.5750000000000004E-002    -1.4686964390954248E-035
   1.6125000000000000E-002    -4.2989532616555068E-034
   1.6500000000000001E-002    -5.1725429597635076E-033
   1.6875000000000001E-002    -6.5500430950485782E-033
   1.7250000000000001E-002     2.9965130847828721E-031
   1.7625000000000002E-002     6.0736793910125489E-031
   1.8000000000000002E-002    -1.1497640446050160E-029
   1.8375000000000002E-002     1.6319210345601974E-029
   1.8750000000000003E-002     2.2498506836290618E-028
   1.9125000000000003E-002    -1.5906530039505724E-027
   1.9500000000000003E-002     5.6686627450439384E-027
   1.9875000000000004E-002    -1.4082845442169178E-026
   2.0250000000000004E-002     2.5222758907852916E-026
   2.0625000000000004E-002    -3.4899279124091568E-026
   2.1000000000000005E-002     2.6193514402130186E-024
   2.1375000000000005E-002     7.7461553451562389E-024
   2.1750000000000005E-002     3.1601030505945899E-023
   2.2125000000000006E-002     1.1783569763441910E-022
   2.2499999999999999E-002     4.4243636823600617E-022
   2.2875000000000000E-002     1.6235789704136047E-021
   2.3250000000000000E-002     5.8522699376694639E-021
   2.3625000000000000E-002     2.0713912395684993E-020
   2.4000000000000000E-002     7.1980414744844749E-020
   2.4375000000000001E-002     2.4559040790472201E-019
   2.4750000000000001E-002     8.2268252267814127E-019
   2.5125000000000001E-002     2.7056575450614553E-018
   2.5500000000000002E-002     8.7362719464460174E-018
   2.5875000000000002E-002     2.7693954733961198E-017
   2.6250000000000002E-002     8.6185917691665513E-017
   2.6625000000000003E-002     2.6331606130052134E-016
   2.7000000000000003E-002     7.8975788455210216E-016
   2.7375000000000003E-002     2.3252894643107206E-015
   2.7750000000000004E-002     6.7207813609026494E-015
   2.8125000000000004E-002     1.9067950758751490E-014
   2.8500000000000004E-002     5.3103681308797704E-014
   2.8875000000000005E-002     1.4516556828786589E-013
   2.9250000000000005E-002     3.8950395909655201E-013
   2.9625000000000005E-002     1.0257789619446111E-012
   3.0000000000000006E-002     2.6513923713176409E-012
   3.0375000000000006E-002     6.7260351121870114E-012
   3.0750000000000000E-002     1.6745120937271755E-011
   3.1125000000000000E-002     4.0911663345056300E-011
   3.1500000000000000E-002     9.8087804363623395E-011
   3.1875000000000001E-002     2.3076547454224479E-010
   3.2250000000000001E-002     5.3271456516585104E-010
   3.2625000000000001E-002     1.2066020662582690E-009
   3.3000000000000002E-002     2.6813298624638510E-009
   3.3375000000000002E-002     5.8456237435971455E-009
   3.3750000000000002E-002     1.2501781358363984E-008
   3.4125000000000003E-002     2.6227039220081457E-008
   3.4500000000000003E-002     5.3966659043246832E-008
   3.4875000000000003E-002     1.0890911281791380E-007
   3.5250000000000004E-002     2.1553921983085500E-007
   3.5625000000000004E-002     4.1828493560648021E-007
   3.6000000000000004E-002     7.9589100672551301E-007
   3.6375000000000005E-002     1.4846365739574765E-006
   3.6750000000000005E-002     2.7146702104282240E-006
   3.7125000000000005E-002     4.8650067765879629E-006
   3.7500000000000006E-002     8.5438476634087095E-006
   3.7875000000000006E-002     1.4701289598869245E-005
   3.8250000000000006E-002     2.4779985410100728E-005
   3.8625000000000007E-002     4.0908646979814485E-005
   3.9000000000000000E-002     6.6126844984417489E-005
   3.9375000000000000E-002     1.0463904297498545E-004
   3.9750000000000001E-002     1.6203955550694394E-004
   4.0125000000000001E-002     2.4548703257070044E-004
   4.0500000000000001E-002     3.6370135986267538E-004
   4.0875000000000002E-002     5.2672765677272545E-004
   4.1250000000000002E-002     7.4529613130473694E-004
   4.1625000000000002E-002     1.0297830590097340E-003
   4.2000000000000003E-002     1.3883828941621064E-003
   4.2375000000000003E-002     1.8251355878812119E-003
   4.2750000000000003E-002     2.3371740858598132E-003
   4.3125000000000004E-002     2.9118814277735282E-003
   4.3500000000000004E-002     3.5249225133411151E-003
   4.3875000000000004E-002     4.1384418773370082E-003
   4.4250000000000005E-002     4.7016521376167068E-003
   4.4625000000000005E-002     5.1534998276015626E-003
   4.5000000000000005E-002     5.4282556674979231E-003
   4.5375000000000006E-002     5.4631406809905608E-003
   4.5750000000000006E-002     5.2098589896598692E-003
   4.6125000000000006E-002     4.6441475089103838E-003
   4.6500000000000007E-002     3.7775723961071461E-003
   4.6875000000000007E-002     2.6614181988916484E-003
   4.7250000000000000E-002     1.3914455132020456E-003
   4.7625000000000001E-002     9.5343935665502663E-005
   4.8000000000000001E-002    -1.0778689563549016E-003
   4.8375000000000001E-002    -1.9834581684655102E-003
   4.8750000000000002E-002    -2.5085196791523228E-003
   4.9125000000000002E-002    -2.5974261503714296E-003
   4.9500000000000002E-002    -2.2805336177622966E-003
   4.9875000000000003E-002    -1.6799435579516221E-003
   5.0250000000000003E-002    -1.0127173158098208E-003
   5.0625000000000003E-002    -5.6872479737540209E-004
   5.1000000000000004E-002    -6.7567432682789572E-004
   5.1375000000000004E-002    -1.6485077648163184E-003
   5.1750000000000004E-002    -3.7397827165517490E-003
   5.2125000000000005E-002    -7.0838836505346427E-003
   5.2500000000000005E-002    -1.1658211267576650E-002
   5.2875000000000005E-002    -1.7273056984670514E-002
   5.3250000000000006E-002    -2.3562916272069571E-002
   5.3625000000000006E-002    -3.0032064308488995E-002
   5.4000000000000006E-002    -3.6096851026239052E-002
   5.4375000000000007E-002    -4.1160067115077484E-002
   5.4750000000000007E-002    -4.4675634506837786E-002
   5.5125000000000007E-002    -4.6216203343773271E-002
   5.5500000000000008E-002    -4.5521721905515691E-002
   5.5875000000000008E-002    -4.2519566673803480E-002
   5.6250000000000008E-002    -3.7336843532176478E-002
   5.6625000000000009E-002    -3.0261258194787650E-002
   5.7000000000000009E-002    -2.1712012074691506E-002
   5.7375000000000009E-002    -1.2184573231213752E-002
   5.7750000000000010E-002    -2.1938678864029688E-003
   5.8125000000000010E-002     7.7721182958562021E-003
   5.8500000000000010E-002     1.7284886609287252E-002
   5.8875000000000011E-002     2.6005992208865639E-002
   5.9250000000000011E-002     3.3677536315208798E-002
   5.9624999999999997E-002     4.0133689394413294E-002
   5.9999999999999998E-002     4.5260539914452655E-002
   6.0374999999999998E-002     4.9008192424984373E-002
   6.0749999999999998E-002     5.1337555558730458E-002
   6.1124999999999999E-002     5.2245453551230239E-002
   6.1499999999999999E-002     5.1743494536092116E-002
   6.1874999999999999E-002     4.9880119632034980E-002
   6.2250000000000000E-002     4.6757676226179490E-002
   6.2625000000000000E-002     4.2553412402912758E-002
   6.3000000000000000E-002     3.7542989364654111E-002
   6.3375000000000001E-002     3.2106631197972899E-002
   6.3750000000000001E-002     2.6726571564431242E-002
   6.4125000000000001E-002     2.1942500727753562E-002
   6.4500000000000002E-002     1.8318155577148325E-002
   6.4875000000000002E-002     1.6344233293883799E-002
   6.5250000000000002E-002     1.6378875448201505E-002
   6.5625000000000003E-002     1.8541156809876586E-002
   6.6000000000000003E-002     2.2658543064789184E-002
   6.6375000000000003E-002     2.8234981108139115E-002
   6.6750000000000004E-002     3.4446455775592286E-002
   6.7125000000000004E-002     4.0235104933310700E-002
   6.7500000000000004E-002     4.4384657880924522E-002
   6.7875000000000005E-002     4.5703095042157374E-002
   6.8250000000000005E-002     4.3183669280986228E-002
   6.8625000000000005E-002     3.6168848405367479E-002
   6.9000000000000006E-002     2.4486984193355935E-002
   6.9375000000000006E-002     8.5287235160517449E-003
   6.9750000000000006E-002    -1.0747892541778756E-002
   7.0125000000000007E-002    -3.1907776604620408E-002
   7.0500000000000007E-002    -5.3166439122527054E-002
   7.0875000000000007E-002    -7.2613897169670594E-002
   7.1250000000000008E-002    -8.8438591391839849E-002
   7.1625000000000008E-002    -9.9132234492038895E-002
   7.2000000000000008E-002   -0.10368456314423447     
   7.2375000000000009E-002   -0.10170410452928388     
   7.2750000000000009E-002    -9.3417706983659227E-002
   7.3125000000000009E-002    -7.9654581179069234E-002
   7.3500000000000010E-002    -6.1719004742855674E-002
   7.3875000000000010E-002    -4.1182651458010748E-002
   7.4250000000000010E-002    -1.9761109889664976E-002
   7.4625000000000011E-002     9.3121409476842193E-004
   7.5000000000000011E-002     1.9528040456863280E-002
   7.5375000000000011E-002     3.4949743805420694E-002
   7.5750000000000012E-002     4.6553658861100647E-002
   7.6124999999999998E-002     5.4019276445564091E-002
   7.6499999999999999E-002     5.7367080470469803E-002
   7.6874999999999999E-002     5.6864211335972886E-002
   7.7249999999999999E-002     5.2904647101186850E-002
   7.7625000000000000E-002     4.5998987703662259E-002
   7.8000000000000000E-002     3.6655598755558981E-002
   7.8375000000000000E-002     2.5383109250898497E-002
   7.8750000000000001E-002     1.2685411491052921E-002
   7.9125000000000001E-002    -9.7536917780609994E-004
   7.9500000000000001E-002    -1.5121299835926715E-002
   7.9875000000000002E-002    -2.9297559067252982E-002
   8.0250000000000002E-002    -4.3061545810266319E-002
   8.0625000000000002E-002    -5.5987251427472406E-002
   8.1000000000000003E-002    -6.7729939625464058E-002
   8.1375000000000003E-002    -7.7985577480514129E-002
   8.1750000000000003E-002    -8.6551528990005372E-002
   8.2125000000000004E-002    -9.3300830883258856E-002
   8.2500000000000004E-002    -9.8133883037399089E-002
   8.2875000000000004E-002   -0.10101380815609512     
   8.3250000000000005E-002   -0.10183726034312060     
   8.3625000000000005E-002   -0.10045841078282464     
   8.4000000000000005E-002    -9.6679389726251008E-002
   8.4375000000000006E-002    -9.0174531009469289E-002
   8.4750000000000006E-002    -8.0640088796446574E-002
   8.5125000000000006E-002    -6.7725552912115655E-002
   8.5500000000000007E-002    -5.1181651835163253E-002
   8.5875000000000007E-002    -3.0911892258408027E-002
   8.6250000000000007E-002    -7.0040049290254966E-003
   8.6625000000000008E-002     2.0163454015110382E-002
   8.7000000000000008E-002     4.9958651584426056E-002
   8.7375000000000008E-002     8.1418810545372838E-002
   8.7750000000000009E-002    0.11336047448211700     
   8.8125000000000009E-002    0.14431863396430905     
   8.8500000000000009E-002    0.17271201276242604     
   8.8875000000000010E-002    0.19685105030840366     
   8.9250000000000010E-002    0.21505585499307711     
   8.9625000000000010E-002    0.22577925683403044     
   9.0000000000000011E-002    0.22770683223085181     
   9.0375000000000011E-002    0.21991010773760250     
   9.0750000000000011E-002    0.20190695356422855     
   9.1125000000000012E-002    0.17387113855888930     
   9.1500000000000012E-002    0.13656509324814439     
   9.1875000000000012E-002     9.1501518012120142E-002
   9.2250000000000013E-002     4.0817281511297092E-002
   9.2624999999999999E-002    -1.2816542295812444E-002
   9.2999999999999999E-002    -6.6262795783996908E-002
   9.3375000000000000E-002   -0.11628548987253384     
   9.3750000000000000E-002   -0.15963852217146868     
   9.4125000000000000E-002   -0.19344886286241542     
   9.4500000000000001E-002   -0.21541528145072064     
   9.4875000000000001E-002   -0.22404028334261811     
   9.5250000000000001E-002   -0.21875332743720266     
   9.5625000000000002E-002   -0.20005113289500703     
   9.6000000000000002E-002   -0.16940923030606686     
   9.6375000000000002E-002   -0.12919818516806048     
   9.6750000000000003E-002    -8.2506921551466078E-002
   9.7125000000000003E-002    -3.2835761123570333E-002
   9.7500000000000003E-002     1.6157964430696600E-002
   9.7875000000000004E-002     6.1040331383957647E-002
   9.8250000000000004E-002     9.8802643184696615E-002
   9.8625000000000004E-002    0.12719791418632631     
   9.9000000000000005E-002    0.14482238355514926     
   9.9375000000000005E-002    0.15121232474147955     
   9.9750000000000005E-002    0.14683689383172360     
  0.10012500000000001         0.13293276493121778     
  0.10050000000000001         0.11136832968982180     
  0.10087500000000001          8.4395623023712354E-002
  0.10125000000000001          5.4444297578371950E-002
  0.10162500000000001          2.3845134866276867E-002
  0.10200000000000001         -5.2820222727268940E-003
  0.10237500000000001         -3.1172884587043176E-002
  0.10275000000000001         -5.2602277411694764E-002
  0.10312500000000001         -6.8733271279693420E-002
  0.10350000000000001         -7.9271524974276142E-002
  0.10387500000000001         -8.4360562398417521E-002
  0.10425000000000001         -8.4453385605458786E-002
  0.10462500000000001         -8.0379034767356666E-002
  0.10500000000000001         -7.3097094285233810E-002
  0.10537500000000001         -6.3668327504189687E-002
  0.10575000000000001         -5.3162001410132650E-002
  0.10612500000000001         -4.2457021657228505E-002
  0.10650000000000001         -3.2278107923045550E-002
  0.10687500000000001         -2.3005686674802676E-002
  0.10725000000000001         -1.4741858115044949E-002
  0.10762500000000001         -7.3076211716064446E-003
  0.10800000000000001         -3.3184493449107434E-004
  0.10837500000000001          6.6207832848791445E-003
  0.10875000000000001          1.3899796582627404E-002
  0.10912500000000000          2.1638443647701046E-002
  0.10950000000000000          2.9661129018464155E-002
  0.10987500000000000          3.7405509563566877E-002
  0.11025000000000000          4.4058591284051832E-002
  0.11062500000000001          4.8588846560872617E-002
  0.11100000000000000          4.9964908192423108E-002
  0.11137500000000002          4.7393016493246926E-002
  0.11175000000000000          4.0430934688160849E-002
  0.11212500000000002          2.9241712718469079E-002
  0.11250000000000000          1.4549043181677525E-002
  0.11287500000000002         -2.3181416677872310E-003
  0.11325000000000000         -1.9602814229364197E-002
  0.11362500000000002         -3.5307737832642058E-002
  0.11400000000000000         -4.7458505483052929E-002
  0.11437500000000002         -5.4399587594875107E-002
  0.11475000000000000         -5.5021504453961881E-002
  0.11512500000000002         -4.8968552230739003E-002
  0.11550000000000001         -3.6723665399320066E-002
  0.11587500000000002         -1.9613762991961804E-002
  0.11625000000000001          2.9660050225198409E-004
  0.11662500000000002          2.0466836476281169E-002
  0.11700000000000001          3.8136595810346521E-002
  0.11737499999999999          5.0700388657616183E-002
  0.11775000000000001          5.6112397557440311E-002
  0.11812499999999999          5.3076326546994235E-002
  0.11850000000000001          4.1440589675946576E-002
  0.11887499999999999          2.2162090336252046E-002
  0.11925000000000001         -2.6876394014847538E-003
  0.11962500000000000         -3.0171973914829890E-002
  0.12000000000000001         -5.6758476472716285E-002
  0.12037500000000000         -7.8902791963472357E-002
  0.12075000000000001         -9.3374105394793377E-002
  0.12112500000000000         -9.7765478873598322E-002
  0.12150000000000001         -9.0847710299989420E-002
  0.12187500000000000         -7.2696563962376462E-002
  0.12225000000000001         -4.4707340064875249E-002
  0.12262500000000000         -9.5216831785539802E-003
  0.12300000000000001          2.9433789844524709E-002
  0.12337500000000000          6.8252933099455321E-002
  0.12375000000000001         0.10303003647085024     
  0.12412500000000000         0.13034309067625161     
  0.12450000000000001         0.14752575700439985     
  0.12487500000000000         0.15301256508935562     
  0.12525000000000003         0.14637014284335842     
  0.12562499999999999         0.12832646835870973     
  0.12600000000000000         0.10060027725256143     
  0.12637500000000002          6.5684998822626767E-002
  0.12675000000000003          2.6539740206406447E-002
  0.12712499999999999         -1.3684951325682773E-002
  0.12750000000000000         -5.1954633177647161E-002
  0.12787500000000002         -8.5585534463512941E-002
  0.12825000000000003        -0.11240023793749010     
  0.12862499999999999        -0.13084770488200409     
  0.12900000000000000        -0.14002903909062170     
  0.12937500000000002        -0.13968668222193620     
  0.12975000000000003        -0.13014658867016710     
  0.13012499999999999        -0.11228745686235750     
  0.13050000000000000         -8.7380182623493827E-002
  0.13087500000000002         -5.7149483516422822E-002
  0.13125000000000003         -2.3625476970280078E-002
  0.13162499999999999          1.0974634332691129E-002
  0.13200000000000001          4.4163762081778371E-002
  0.13237500000000002          7.3548746515201796E-002
  0.13275000000000003          9.6755505272845266E-002
  0.13312499999999999         0.11180351181772191     
  0.13350000000000001         0.11715949467862577     
  0.13387500000000002         0.11206778552409832     
  0.13424999999999998          9.6546419181841536E-002
  0.13462499999999999          7.1616308715477334E-002
  0.13500000000000001          3.9230089661270062E-002
  0.13537500000000002          2.0855879146626233E-003
  0.13574999999999998         -3.6408247672885398E-002
  0.13612500000000000         -7.2645118640156353E-002
  0.13650000000000001        -0.10298903409280682     
  0.13687500000000002        -0.12429575053705585     
  0.13724999999999998        -0.13414426393587361     
  0.13762500000000000        -0.13118056135933873     
  0.13800000000000001        -0.11528492596367262     
  0.13837500000000003         -8.7516175591463158E-002
  0.13874999999999998         -5.0237614875504648E-002
  0.13912500000000000         -6.6290506680081185E-003
  0.13950000000000001          3.9394889068166378E-002
  0.13987500000000003          8.3753151420277061E-002
  0.14024999999999999         0.12253482310858049     
  0.14062500000000000         0.15240389438200513     
  0.14100000000000001         0.17100528344809190     
  0.14137500000000003         0.17709846371170340     
  0.14174999999999999         0.17070586807469079     
  0.14212500000000000         0.15301523001976688     
  0.14250000000000002         0.12618912277166577     
  0.14287500000000003          9.3021664454570149E-002
  0.14324999999999999          5.6619942173726234E-002
  0.14362500000000000          1.9990599286187724E-002
  0.14400000000000002         -1.4290350460587201E-002
  0.14437500000000003         -4.4243510652467240E-002
  0.14474999999999999         -6.8705291109576849E-002
  0.14512500000000000         -8.7233237197497066E-002
  0.14550000000000002        -0.10012568037002095     
  0.14587500000000003        -0.10817973260645752     
  0.14624999999999999        -0.11263489659212156     
  0.14662500000000001        -0.11490606253210939     
  0.14700000000000002        -0.11650206889009829     
  0.14737500000000003        -0.11883461126162026     
  0.14774999999999999        -0.12308184265607630     
  0.14812500000000001        -0.13009366480113377     
  0.14850000000000002        -0.14015098069627963     
  0.14887500000000004        -0.15293017697273731     
  0.14924999999999999        -0.16736573699131951     
  0.14962500000000001        -0.18153581162756655     
  0.15000000000000002        -0.19292983306609446     
  0.15037499999999998        -0.19835852709383656     
  0.15075000000000000        -0.19454902434509233     
  0.15112500000000001        -0.17828426297332700     
  0.15150000000000002        -0.14701722967242750     
  0.15187499999999998         -9.9213222307471594E-002
  0.15225000000000000         -3.4743210811601477E-002
  0.15262500000000001          4.4905074323048910E-002
  0.15300000000000002         0.13662158915217593     
  0.15337499999999998         0.23574791543941176     
  0.15375000000000000         0.33646280341148183     
  0.15412500000000001         0.43214637134441802     
  0.15450000000000003         0.51611852214944265     
  0.15487499999999998         0.58205834007791868     
  0.15525000000000000         0.62460169306738589     
  0.15562500000000001         0.64000169924068517     
  0.15600000000000003         0.62621280638417032     
  0.15637499999999999         0.58326640685736475     
  0.15675000000000000         0.51319667052353246     
  0.15712500000000001         0.41974887469444072     
  0.15750000000000003         0.30812836559716261     
  0.15787499999999999         0.18436131385028903     
  0.15825000000000000          5.4758262263244428E-002
  0.15862500000000002         -7.4840197813029030E-002
  0.15900000000000003        -0.19934136637730954     
  0.15937499999999999        -0.31498112949815005     
  0.15975000000000000        -0.41937884719985863     
  0.16012500000000002        -0.51142534824491404     
  0.16050000000000003        -0.59104519098063846     
  0.16087499999999999        -0.65853249520124502     
  0.16125000000000000        -0.71411254727654261     
  0.16162500000000002        -0.75733512051698182     
  0.16200000000000003        -0.78679155986355531     
  0.16237499999999999        -0.79977482790158594     
  0.16275000000000001        -0.79276072307319922     
  0.16312500000000002        -0.76171630815536973     
  0.16350000000000003        -0.70286895986424247     
  0.16387499999999999        -0.61361059361811299     
  0.16425000000000001        -0.49323845760247154     
  0.16462500000000002        -0.34357027095358256     
  0.16500000000000004        -0.16939998223702202     
  0.16537499999999999          2.1856221253409247E-002
  0.16575000000000001         0.22040476438647139     
  0.16612500000000002         0.41501601840258617     
  0.16650000000000004         0.59399106969331417     
  0.16687500000000000         0.74641556124174580     
  0.16725000000000001         0.86287455281651715     
  0.16762500000000002         0.93653703156020263     
  0.16799999999999998         0.96345426774224663     
  0.16837500000000000         0.94281948491992362     
  0.16875000000000001         0.87668554133511511     
  0.16912500000000003         0.76985571202076430     
  0.16949999999999998         0.62908520762923570     
  0.16987500000000000         0.46295188576877344     
  0.17025000000000001         0.28097765039699601     
  0.17062500000000003          9.3440562466192700E-002
  0.17099999999999999         -8.8953495561704399E-002
  0.17137500000000000        -0.25573316822210290     
  0.17175000000000001        -0.39688381388456428     
  0.17212500000000003        -0.50340885867326923     
  0.17249999999999999        -0.56822774019016142     
  0.17287500000000000        -0.58644815261430172     
  0.17325000000000002        -0.55638206646717892     
  0.17362500000000003        -0.48022415330047163     
  0.17399999999999999        -0.36376914524983200     
  0.17437500000000000        -0.21684119205122832     
  0.17475000000000002         -5.2608013378359519E-002
  0.17512500000000003         0.11377585135553242     
  0.17549999999999999         0.26610395067771242     
  0.17587500000000000         0.38911954463280940     
  0.17625000000000002         0.47004952003034006     
  0.17662500000000003         0.49998880786467703     
  0.17699999999999999         0.47522936450219366     
  0.17737500000000000         0.39759529342865751     
  0.17775000000000002         0.27439593863768713     
  0.17812500000000003         0.11771058744691010     
  0.17849999999999999         -5.6938920642164659E-002
  0.17887500000000001        -0.23217433289209605     
  0.17925000000000002        -0.39079476569071347     
  0.17962500000000003        -0.51746376079442746     
  0.17999999999999999        -0.60031011875033879     
  0.18037500000000001        -0.63223963418111784     
  0.18075000000000002        -0.61139189659981541     
  0.18112500000000004        -0.54139020521120562     
  0.18149999999999999        -0.43072904164458492     
  0.18187500000000001        -0.29160962728758499     
  0.18225000000000002        -0.13872191929019811     
  0.18262500000000004          1.2672332877653791E-002
  0.18300000000000000         0.14850748945007855     
  0.18337500000000001         0.25719991911619910     
  0.18375000000000002         0.33139248353097717     
  0.18412499999999998         0.36818521785110103     
  0.18450000000000000         0.36934439641705663     
  0.18487500000000001         0.34079085384454322     
  0.18525000000000003         0.29133463161498374     
  0.18562499999999998         0.23105266946045083     
  0.18600000000000000         0.16969363304594723     
  0.18637500000000001         0.11509181161645426     
  0.18675000000000003          7.1942572183486792E-002
  0.18712499999999999          4.1556336216099804E-002
  0.18750000000000000          2.1875947885765690E-002
  0.18787500000000001          8.2055700535937220E-003
  0.18825000000000003         -4.8554622084492557E-003
  0.18862499999999999         -2.2673753270080657E-002
  0.18900000000000000         -4.8594754876717251E-002