  -1.4999999999999999E-002     0.0000000000000000     
  -1.4624999999999999E-002     0.0000000000000000     
  -1.4249999999999999E-002     0.0000000000000000     
  -1.3874999999999998E-002     0.0000000000000000     
  -1.3500000000000000E-002     0.0000000000000000     
  -1.3125000000000000E-002     0.0000000000000000     
  -1.2749999999999999E-002     0.0000000000000000     
  -1.2374999999999999E-002     0.0000000000000000     
  -1.2000000000000000E-002     0.0000000000000000     
  -1.1625000000000000E-002     0.0000000000000000     
  -1.1250000000000000E-002     0.0000000000000000     
  -1.0874999999999999E-002     0.0000000000000000     
  -1.0499999999999999E-002     0.0000000000000000     
  -1.0124999999999999E-002     0.0000000000000000     
  -9.7499999999999983E-003     0.0000000000000000     
  -9.3749999999999979E-003     0.0000000000000000     
  -8.9999999999999993E-003     0.0000000000000000     
  -8.6249999999999990E-003     0.0000000000000000     
  -8.2500000000000004E-003     0.0000000000000000     
  -7.8750000000000001E-003     0.0000000000000000     
  -7.4999999999999989E-003     0.0000000000000000     
  -7.1249999999999994E-003     0.0000000000000000     
  -6.7499999999999991E-003     0.0000000000000000     
  -6.3749999999999987E-003     0.0000000000000000     
  -5.9999999999999984E-003     0.0000000000000000     
  -5.6249999999999998E-003     0.0000000000000000     
  -5.2499999999999995E-003     0.0000000000000000     
  -4.8749999999999991E-003     0.0000000000000000     
  -4.4999999999999988E-003     0.0000000000000000     
  -4.1249999999999985E-003     0.0000000000000000     
  -3.7499999999999981E-003     0.0000000000000000     
  -3.3749999999999995E-003     0.0000000000000000     
  -2.9999999999999992E-003     0.0000000000000000     
  -2.6249999999999989E-003     0.0000000000000000     
  -2.2499999999999985E-003     0.0000000000000000     
  -1.8749999999999982E-003     0.0000000000000000     
  -1.4999999999999996E-003     0.0000000000000000     
  -1.1249999999999993E-003     0.0000000000000000     
  -7.4999999999999893E-004     0.0000000000000000     
  -3.7499999999999860E-004     0.0000000000000000     
   1.7347234759768071E-018     0.0000000000000000     
   3.7500000000000207E-004    -1.0618785966132226E-055
   7.5000000000000067E-004    -1.2181971723726367E-053
   1.1250000000000010E-003     3.9135401532822338E-038
   1.5000000000000013E-003     6.2906392988721960E-037
   1.8750000000000017E-003    -1.7308619973136573E-036
   2.2500000000000020E-003    -3.3189445932897275E-035
   2.6250000000000023E-003     7.7470702690813638E-035
   3.0000000000000027E-003    -1.3061537324539441E-035
   3.3750000000000030E-003    -2.6576506643062731E-033
   3.7499999999999999E-003    -1.7573104987093384E-032
   4.1250000000000002E-003    -6.4256409863030304E-032
   4.5000000000000005E-003     7.4667829112529287E-031
   4.8750000000000009E-003     3.6965581716669949E-030
   5.2500000000000012E-003    -3.1593672870757303E-029
   5.6250000000000015E-003    -1.1326804846327560E-029
   6.0000000000000019E-003     8.2354568746361225E-028
   6.3750000000000022E-003    -4.1434057476504525E-027
   6.7500000000000025E-003     1.0603295537401843E-026
   7.1250000000000029E-003    -1.3002599780820661E-026
   7.5000000000000032E-003    -2.3465873329185652E-026
   7.8750000000000001E-003     2.7783232192522135E-025
   8.2500000000000004E-003     7.0920125093668589E-024
   8.6250000000000007E-003     2.2893783407982476E-023
   9.0000000000000011E-003     9.0430330841475535E-023
   9.3750000000000014E-003     3.3854815690958753E-022
   9.7500000000000017E-003     1.2672931991229619E-021
   1.0125000000000002E-002     4.6422434361357567E-021
   1.0500000000000002E-002     1.6707993180532042E-020
   1.0875000000000003E-002     5.9039372796207064E-020
   1.1250000000000003E-002     2.0483287134373668E-019
   1.1625000000000003E-002     6.9772945935402072E-019
   1.2000000000000000E-002     2.3334358997653863E-018
   1.2375000000000001E-002     7.6616369840276310E-018
   1.2750000000000001E-002     2.4697381899498932E-017
   1.3125000000000001E-002     7.8159127401481128E-017
   1.3500000000000002E-002     2.4282484647896548E-016
   1.3875000000000002E-002     7.4060425902017004E-016
   1.4250000000000002E-002     2.2173966844697710E-015
   1.4625000000000003E-002     6.5171419614558133E-015
   1.5000000000000003E-002     1.8802511988256415E-014
   1.5375000000000003E-002     5.3247697299035124E-014
   1.5750000000000004E-002     1.4801575285544192E-013
   1.6125000000000000E-002     4.0384513415382093E-013
   1.6500000000000001E-002     1.0814549105457703E-012
   1.6875000000000001E-002     2.8423386437774618E-012
   1.7250000000000001E-002     7.3315382935729196E-012
   1.7625000000000002E-002     1.8558928788265041E-011
   1.8000000000000002E-002     4.6102260571621211E-011
   1.8375000000000002E-002     1.1237957816463627E-010
   1.8750000000000003E-002     2.6879788779151571E-010
   1.9125000000000003E-002     6.3082778554963416E-010
   1.9500000000000003E-002     1.4524986585751071E-009
   1.9875000000000004E-002     3.2810671916401906E-009
   2.0250000000000004E-002     7.2706343387921819E-009
   2.0625000000000004E-002     1.5803908917981093E-008
   2.1000000000000005E-002     3.3693383589592022E-008
   2.1375000000000005E-002     7.0449898697829006E-008
   2.1750000000000005E-002     1.4445306336312344E-007
   2.2125000000000006E-002     2.9042666385492476E-007
   2.2499999999999999E-002     5.7248191729634736E-007
   2.2875000000000000E-002     1.1062130651916733E-006
   2.3250000000000000E-002     2.0951540845509074E-006
   2.3625000000000000E-002     3.8887693245587199E-006
   2.4000000000000000E-002     7.0723275784701583E-006
   2.4375000000000001E-002     1.2600003109773399E-005
   2.4750000000000001E-002     2.1986109908182689E-005
   2.5125000000000001E-002     3.7564794783360444E-005
   2.5500000000000002E-002     6.2827088038692954E-005
   2.5875000000000002E-002     1.0282826003944745E-004
   2.6250000000000002E-002     1.6462559749246450E-004
   2.6625000000000003E-002     2.5771374698865492E-004
   2.7000000000000003E-002     3.9426681024603161E-004
   2.7375000000000003E-002     5.8913588423697050E-004
   2.7750000000000004E-002     8.5918160519210432E-004
   2.8125000000000004E-002     1.2219155895469849E-003
   2.8500000000000004E-002     1.6927931326257445E-003
   2.8875000000000005E-002     2.2814693757337422E-003
   2.9250000000000005E-002     2.9862560648610060E-003
   2.9625000000000005E-002     3.7877339569695758E-003
   3.0000000000000006E-002     4.6415430131392143E-003
   3.0375000000000006E-002     5.4721473045590821E-003
   3.0750000000000000E-002     6.1679180584428995E-003
   3.1125000000000000E-002     6.5818560443662967E-003
   3.1500000000000000E-002     6.5372140004699725E-003
   3.1875000000000001E-002     5.8408840556000126E-003
   3.2250000000000001E-002     4.3078498270193617E-003
   3.2625000000000001E-002     1.7897020425379922E-003
   3.3000000000000002E-002    -1.7883930799660443E-003
   3.3375000000000002E-002    -6.3939796050979649E-003
   3.3750000000000002E-002    -1.1858195942336268E-002
   3.4125000000000003E-002    -1.7865267071741443E-002
   3.4500000000000003E-002    -2.3955654773317153E-002
   3.4875000000000003E-002    -2.9573680759852967E-002
   3.5250000000000004E-002    -3.4117896113394552E-002
   3.5625000000000004E-002    -3.7041104503617493E-002
   3.6000000000000004E-002    -3.7939301290034796E-002
   3.6375000000000005E-002    -3.6647195710345519E-002
   3.6750000000000005E-002    -3.3309996889253193E-002
   3.7125000000000005E-002    -2.8404890551009209E-002
   3.7500000000000006E-002    -2.2710205728185783E-002
   3.7875000000000006E-002    -1.7208591442485401E-002
   3.8250000000000006E-002    -1.2953726621539237E-002
   3.8625000000000007E-002    -1.0845870181826599E-002
   3.9000000000000000E-002    -1.1474735091010980E-002
   3.9375000000000000E-002    -1.4921550602171292E-002
   3.9750000000000001E-002    -2.0642891144980718E-002
   4.0125000000000001E-002    -2.7468838388632129E-002
   4.0500000000000001E-002    -3.3658431865044414E-002
   4.0875000000000002E-002    -3.7103652927736250E-002
   4.1250000000000002E-002    -3.5593790938643316E-002
   4.1625000000000002E-002    -2.7138880080384356E-002
   4.2000000000000003E-002    -1.0322850203775481E-002
   4.2375000000000003E-002     1.5416583088691812E-002
   4.2750000000000003E-002     4.9561364871183275E-002
   4.3125000000000004E-002     9.0434435645350905E-002
   4.3500000000000004E-002    0.13522628811491894     
   4.3875000000000004E-002    0.18020096474728425     
   4.4250000000000005E-002    0.22104740150114999     
   4.4625000000000005E-002    0.25322109254571101     
   4.5000000000000005E-002    0.27250307393930928     
   4.5375000000000006E-002    0.27547038810357932     
   4.5750000000000006E-002    0.25987053375571695     
   4.6125000000000006E-002    0.22507031029791669     
   4.6500000000000007E-002    0.17218081919279063     
   4.6875000000000007E-002    0.10414428013395226     
   4.7250000000000000E-002     2.5554035970208350E-002
   4.7625000000000001E-002    -5.7658879305934184E-002
   4.8000000000000001E-002   -0.13876709914956387     
   4.8375000000000001E-002   -0.21089353465361008     
   4.8750000000000002E-002   -0.26768524506161301     
   4.9125000000000002E-002   -0.30408912694343876     
   4.9500000000000002E-002   -0.31692259166748932     
   4.9875000000000003E-002   -0.30536216331643717     
   5.0250000000000003E-002   -0.27109304845515525     
   5.0625000000000003E-002   -0.21824915620704452     
   5.1000000000000004E-002   -0.15299208291879171     
   5.1375000000000004E-002    -8.2832257212908114E-002
   5.1750000000000004E-002    -1.5771969278413969E-002
   5.2125000000000005E-002     4.0708800961762992E-002
   5.2500000000000005E-002     8.0510827018017497E-002
   5.2875000000000005E-002     9.9747926297896430E-002
   5.3250000000000006E-002     9.7145950903066672E-002
   5.3625000000000006E-002     7.4191305047324019E-002
   5.4000000000000006E-002     3.4898741235700553E-002
   5.4375000000000007E-002    -1.4853358583172733E-002
   5.4750000000000007E-002    -6.8101525499088086E-002
   5.5125000000000007E-002   -0.11775529317948179     
   5.5500000000000008E-002   -0.15751947578275524     
   5.5875000000000008E-002   -0.18261386378233360     
   5.6250000000000008E-002   -0.19026313006162590     
   5.6625000000000009E-002   -0.17978343817800688     
   5.7000000000000009E-002   -0.15243787420833310     
   5.7375000000000009E-002   -0.11096136193762583     
   5.7750000000000010E-002    -5.8977523750337803E-002
   5.8125000000000010E-002    -3.3610296775867085E-004
   5.8500000000000010E-002     6.1367353299406874E-002
   5.8875000000000011E-002    0.12322098423773728     
   5.9250000000000011E-002    0.18302090223784176     
   5.9624999999999997E-002    0.23915848985348775     
   5.9999999999999998E-002    0.29030289267091830     
   6.0374999999999998E-002    0.33501871219405227     
   6.0749999999999998E-002    0.37138697779697155     
   6.1124999999999999E-002    0.39676483141411206     
   6.1499999999999999E-002    0.40796245682929128     
   6.1874999999999999E-002    0.40137220532661633     
   6.2250000000000000E-002    0.37377376980037053     
   6.2625000000000000E-002    0.32283049778886896     
   6.3000000000000000E-002    0.24786643086666910     
   6.3375000000000001E-002    0.15047928883707201     
   6.3750000000000001E-002     3.4661930412853759E-002
   6.4125000000000001E-002    -9.3307680158382811E-002
   6.4500000000000002E-002   -0.22538991627393548     
   6.4875000000000002E-002   -0.35271198457910119     
   6.5250000000000002E-002   -0.46654872423070404     
   6.5625000000000003E-002   -0.55938825604776077     
   6.6000000000000003E-002   -0.62569208048594893     
   6.6375000000000003E-002   -0.66237992897859965     
   6.6750000000000004E-002   -0.66886591646524896     
   6.7125000000000004E-002   -0.64665826570151896     
   6.7500000000000004E-002   -0.59876789109821471     
   6.7875000000000005E-002   -0.52892830802276181     
   6.8250000000000005E-002   -0.44103853328637893     
   6.8625000000000005E-002   -0.33859616414474358     
   6.9000000000000006E-002   -0.22481009600942184     
   6.9375000000000006E-002   -0.10266999341487194     
   6.9750000000000006E-002     2.4454188401441181E-002
   7.0125000000000007E-002    0.15257806360624904     
   7.0500000000000007E-002    0.27658832968470720     
   7.0875000000000007E-002    0.39036016304576487     
   7.1250000000000008E-002    0.48737449421822154     
   7.1625000000000008E-002    0.56130021388342977     
   7.2000000000000008E-002    0.60731024135498557     
   7.2375000000000009E-002    0.62304937798857507     
   7.2750000000000009E-002    0.60945499221601840     
   7.3125000000000009E-002    0.57106173778167091     
   7.3500000000000010E-002    0.51567952898972635     
   7.3875000000000010E-002    0.45320300402547881     
   7.4250000000000010E-002    0.39415643721038662     
   7.4625000000000011E-002    0.34775184210870952     
   7.5000000000000011E-002    0.32012790534079760     
   7.5375000000000011E-002    0.31308364514005810     
   7.5750000000000012E-002    0.32338119624832418     
   7.6124999999999998E-002    0.34330087587561386     
   7.6499999999999999E-002    0.36147299114318232     
   7.6874999999999999E-002    0.36515320256533884     
   7.7249999999999999E-002    0.34224962878289811     
   7.7625000000000000E-002    0.28361619496278756     
   7.8000000000000000E-002    0.18502385132382143     
   7.8375000000000000E-002     4.7910677529581322E-002
   7.8750000000000001E-002   -0.11994732175352499     
   7.9125000000000001E-002   -0.30572122303034288     
   7.9500000000000001E-002   -0.49284904046192674     
   7.9875000000000002E-002   -0.66331918668025081     
   8.0250000000000002E-002   -0.80000711731422214     
   8.0625000000000002E-002   -0.88919889188666190     
   8.1000000000000003E-002   -0.92212943353695398     
   8.1375000000000003E-002   -0.89628132778179537     
   8.1750000000000003E-002   -0.81565782743890403     
   8.2125000000000004E-002   -0.69007747007279141     
   8.2500000000000004E-002   -0.53387692819704868     
   8.2875000000000004E-002   -0.36410239699496244     
   8.3250000000000005E-002   -0.19824634954317852     
   8.3625000000000005E-002    -5.1965139651456230E-002
   8.4000000000000005E-002     6.2520441061255552E-002
   8.4375000000000006E-002    0.13785942695931097     
   8.4750000000000006E-002    0.17231654723523987     
   8.5125000000000006E-002    0.16920177042172888     
   8.5500000000000007E-002    0.13661978945207912     
   8.5875000000000007E-002     8.5351012112856270E-002
   8.6250000000000007E-002     2.7522105224017240E-002
   8.6625000000000008E-002    -2.5128696143648672E-002
   8.7000000000000008E-002    -6.3378046215579062E-002
   8.7375000000000008E-002    -8.1047270654468179E-002
   8.7750000000000009E-002    -7.5770072655171064E-002
   8.8125000000000009E-002    -4.9204500610139632E-002
   8.8500000000000009E-002    -5.7274357088304834E-003
   8.8875000000000010E-002     4.8323237512826286E-002
   8.9250000000000010E-002    0.10573266681442983     
   8.9625000000000010E-002    0.16016131968274450     
   9.0000000000000011E-002    0.20677104116753822     
   9.0375000000000011E-002    0.24282436430368956     
   9.0750000000000011E-002    0.26781172831464406     
   9.1125000000000012E-002    0.28294332551739099     
   9.1500000000000012E-002    0.29060592610555630     
   9.1875000000000012E-002    0.29303635097386216     
   9.2250000000000013E-002    0.29188357582138208     
   9.2624999999999999E-002    0.28720643426281645     
   9.2999999999999999E-002    0.27704568761231413     
   9.3375000000000000E-002    0.25803126902999435     
   9.3750000000000000E-002    0.22580685008281581     
   9.4125000000000000E-002    0.17600011890501846     
   9.4500000000000001E-002    0.10632739782160192     
   9.4875000000000001E-002     1.7615624854825210E-002
   9.5250000000000001E-002    -8.4723811260566398E-002
   9.5625000000000002E-002   -0.18990501494515052     
   9.6000000000000002E-002   -0.28236046319154162     
   9.6375000000000002E-002   -0.34308313443107979     
   9.6750000000000003E-002   -0.35229017273658031     
   9.7125000000000003E-002   -0.29307347261949229     
   9.7500000000000003E-002   -0.15549982982023650     
   9.7875000000000004E-002     5.9833207783843059E-002
   9.8250000000000004E-002    0.33940654855138280     
   9.8625000000000004E-002    0.65598917288932290     
   9.9000000000000005E-002    0.97031202730102317     
   9.9375000000000005E-002     1.2358306083707173     
   9.9750000000000005E-002     1.4043015319906234     
  0.10012500000000001          1.4336494288449289     
  0.10050000000000001          1.2952838536405433     
  0.10087500000000001         0.97966018877748984     
  0.10125000000000001         0.50015337324876863     
  0.10162500000000001        -0.10667901689158898     
  0.10200000000000001        -0.78497126042398702     
  0.10237500000000001         -1.4656407386123629     
  0.10275000000000001         -2.0746472293758589     
  0.10312500000000001         -2.5429179570054856     
  0.10350000000000001         -2.8149227148530223     
  0.10387500000000001         -2.8552476660265826     
  0.10425000000000001         -2.6533391764468570     
  0.10462500000000001         -2.2238215628676388     
  0.10500000000000001         -1.6042336639565768     
  0.10537500000000001        -0.85026194353049589     
  0.10575000000000001         -2.8922182379776375E-002
  0.10612500000000001         0.78923008083050816     
  0.10650000000000001          1.5369900360696016     
  0.10687500000000001          2.1569940731387014     
  0.10725000000000001          2.6062182110570919     
  0.10762500000000001          2.8583078785792311     
  0.10800000000000001          2.9047356247437706     
  0.10837500000000001          2.7535373867058190     
  0.10875000000000001          2.4264107212518384     
  0.10912500000000000          1.9561793038487383     
  0.10950000000000000          1.3824655232586820     
  0.10987500000000000         0.74825283549033095     
  0.11025000000000000          9.6020799039721355E-002
  0.11062500000000001        -0.53424923385462297     
  0.11100000000000000         -1.1082055859772217     
  0.11137500000000002         -1.5982296703612393     
  0.11175000000000000         -1.9833459570600800     
  0.11212500000000002         -2.2512974789024733     
  0.11250000000000000         -2.3963900604457109     
  0.11287500000000002         -2.4197784338606749     
  0.11325000000000000         -2.3288554380025475     
  0.11362500000000002         -2.1351352031694457     
  0.11400000000000000         -1.8542466906866542     
  0.11437500000000002         -1.5042757319720834     
  0.11475000000000000         -1.1042766568567417     
  0.11512500000000002        -0.67393311860586791     
  0.11550000000000001        -0.23292559902445414     
  0.11587500000000002         0.20148288681922039     
  0.11625000000000001         0.61277539771300815     
  0.11662500000000002         0.98699497555262861     
  0.11700000000000001          1.3131184115674224     
  0.11737499999999999          1.5821647708919429     
  0.11775000000000001          1.7884726202432450     
  0.11812499999999999          1.9286666285184382     
  0.11850000000000001          2.0021382478783751     
  0.11887499999999999          2.0104315284428047     
  0.11925000000000001          1.9571064031864194     
  0.11962500000000000          1.8474298983568036     
  0.12000000000000001          1.6878575575117223     
  0.12037500000000000          1.4860923163115816     
  0.12075000000000001          1.2499685142869628     
  0.12112500000000000         0.98835721419281786     
  0.12150000000000001         0.70971854187339956     
  0.12187500000000000         0.42241147646443211     
  0.12225000000000001         0.13463117482991857     
  0.12262500000000000        -0.14603177751950616     
  0.12300000000000001        -0.41288913850517656     
  0.12337500000000000        -0.65997753547094495     
  0.12375000000000001        -0.88209164456930023     
  0.12412500000000000         -1.0749577820586680     
  0.12450000000000001         -1.2357115348347683     
  0.12487500000000000         -1.3618780602484550     
  0.12525000000000003         -1.4520258722451280     
  0.12562499999999999         -1.5062525888804972     
  0.12600000000000000         -1.5245279846502875     
  0.12637500000000002         -1.5083711630608481     
  0.12675000000000003         -1.4600933684835444     
  0.12712499999999999         -1.3818176043721722     
  0.12750000000000000         -1.2770981382316027     
  0.12787500000000002         -1.1496963312120461     
  0.12825000000000003         -1.0030885085517596     
  0.12862499999999999        -0.84156670285546298     
  0.12900000000000000        -0.66935670665152858     
  0.12937500000000002        -0.49026141816205759     
  0.12975000000000003        -0.30838579641713598     
  0.13012499999999999        -0.12755763515790697     
  0.13050000000000000          4.8870890053043764E-002
  0.13087500000000002         0.21777564723578860     
  0.13125000000000003         0.37611188551893499     
  0.13162499999999999         0.52151065643463812     
  0.13200000000000001         0.65208174291142229     
  0.13237500000000002         0.76577459420962135     
  0.13275000000000003         0.86153356723030838     
  0.13312499999999999         0.93820606632626524     
  0.13350000000000001         0.99513687874104539     
  0.13387500000000002          1.0321209216710510     
  0.13424999999999998          1.0491430980533585     
  0.13462499999999999          1.0465575235315463     
  0.13500000000000001          1.0252095907884224     
  0.13537500000000002         0.98609616826241342     
  0.13574999999999998         0.93070637565190839     
  0.13612500000000000         0.86059155487034555     
  0.13650000000000001         0.77763726022036217     
  0.13687500000000002         0.68399174559468323     
  0.13724999999999998         0.58173766647871117     
  0.13762500000000000         0.47321302209642091     
  0.13800000000000001         0.36065392400843066     
  0.13837500000000003         0.24623244060108568     
  0.13874999999999998         0.13228169540742857     
  0.13912500000000000          2.0646355219600360E-002
  0.13950000000000001         -8.6782676168757331E-002
  0.13987500000000003        -0.18850077487501526     
  0.14024999999999999        -0.28289846022339415     
  0.14062500000000000        -0.36894025683650139     
  0.14100000000000001        -0.44583749692530295     
  0.14137500000000003        -0.51244841370534799     
  0.14174999999999999        -0.56847634313392892     
  0.14212500000000000        -0.61340634909017755     
  0.14250000000000002        -0.64699535244584983     
  0.14287500000000003        -0.66912754683948084     
  0.14324999999999999        -0.67989334251782085     
  0.14362500000000000        -0.67966575617046809     
  0.14400000000000002        -0.66848446414793994     
  0.14437500000000003        -0.64717518122373996     
  0.14474999999999999        -0.61652228523061037     
  0.14512500000000000        -0.57681890065359165     
  0.14550000000000002        -0.52959979975015892     
  0.14587500000000003        -0.47571177192573255     
  0.14624999999999999        -0.41612667164167183     
  0.14662500000000001        -0.35247133605010156     
  0.14700000000000002        -0.28580862582923100     
  0.14737500000000003        -0.21725562600274281     
  0.14774999999999999        -0.14846914499186500     
  0.14812500000000001         -8.0127577320331864E-002
  0.14850000000000002         -1.3533196942340373E-002
  0.14887500000000004          5.0494663006539590E-002
  0.14924999999999999         0.11118705793825640     
  0.14962500000000001         0.16784023368236853     
  0.15000000000000002         0.21991279018887933     
  0.15037499999999998         0.26687196914611488     
  0.15075000000000000         0.30848544097590280     
  0.15112500000000001         0.34432282185113805     
  0.15150000000000002         0.37413990923442109     
  0.15187499999999998         0.39779794991632328     
  0.15225000000000000         0.41526861663098696     
  0.15262500000000001         0.42624624092223706     
  0.15300000000000002         0.43086535059081221     
  0.15337499999999998         0.42922618681995761     
  0.15375000000000000         0.42122064102054857     
  0.15412500000000001         0.40735281122267047     
  0.15450000000000003         0.38780358429971395     
  0.15487499999999998         0.36302245677403938     
  0.15525000000000000         0.33353117804576315     
  0.15562500000000001         0.30029887210290029     
  0.15600000000000003         0.26351906909256562     
  0.15637499999999999         0.22428168370678678     
  0.15675000000000000         0.18330138582743416     
  0.15712500000000001         0.14113046274089402     
  0.15750000000000003          9.8692233330284443E-002
  0.15787499999999999          5.6592369476630315E-002
  0.15825000000000000          1.5214315399488629E-002
  0.15862500000000002         -2.4634263240998967E-002
  0.15900000000000003         -6.2537076546982165E-002
  0.15937499999999999         -9.8285087224418893E-002
  0.15975000000000000        -0.13148705078627720     
  0.16012500000000002        -0.16194792122550977     
  0.16050000000000003        -0.18913333564352822     
  0.16087499999999999        -0.21333915462720315     
  0.16125000000000000        -0.23408129727790983     
  0.16162500000000002        -0.25096670412485095     
  0.16200000000000003        -0.26433934337314541     
  0.16237499999999999        -0.27358233668949983     
  0.16275000000000001        -0.27858155376700117     
  0.16312500000000002        -0.27982091464630698     
  0.16350000000000003        -0.27676145923151396     
  0.16387499999999999        -0.26960407440291495     
  0.16425000000000001        -0.25893442351496615     
  0.16462500000000002        -0.24468834503475334     
  0.16500000000000004        -0.22719394263311254     
  0.16537499999999999        -0.20723207272900990     
  0.16575000000000001        -0.18486436942309428     
  0.16612500000000002        -0.16084733893165568     
  0.16650000000000004        -0.13574543504755310     
  0.16687500000000000        -0.10976097318957088     
  0.16725000000000001         -8.3507153992786562E-002
  0.16762500000000002         -5.7428836417023420E-002
  0.16799999999999998         -3.1612800131702881E-002
  0.16837500000000000         -6.4788893656351930E-003
  0.16875000000000001          1.7891899005630412E-002
  0.16912500000000003          4.1221774706579936E-002
  0.16949999999999998          6.3412868357649615E-002
  0.16987500000000000          8.4288228550150820E-002
  0.17025000000000001         0.10353833247797541     
  0.17062500000000003         0.12131843486370009     
  0.17099999999999999         0.13712928972845126     
  0.17137500000000000         0.15078708329919177     
  0.17175000000000001         0.16247407715298628     
  0.17212500000000003         0.17166444569561928     
  0.17249999999999999         0.17834599687850552     
  0.17287500000000000         0.18230689057230881     
  0.17325000000000002         0.18351322862729186     
  0.17362500000000003         0.18195405892020081     
  0.17399999999999999         0.17758010292480075     
  0.17437500000000000         0.17065375671844363     
  0.17475000000000002         0.16142710516329997     
  0.17512500000000003         0.15021568142115629     
  0.17549999999999999         0.13749411726958705     
  0.17587500000000000         0.12370039537109945     
  0.17625000000000002         0.10883818436623402     
  0.17662500000000003          9.3662496548442400E-002
  0.17699999999999999          7.8166593018804895E-002
  0.17737500000000000          6.2237179984874560E-002
  0.17775000000000002          4.6260937924067096E-002
  0.17812500000000003          3.0108752010614168E-002
  0.17849999999999999          1.3929937935115778E-002
  0.17887500000000001         -2.2425577365682895E-003
  0.17925000000000002         -1.8224841003024482E-002
  0.17962500000000003         -3.3714480584410692E-002
  0.17999999999999999         -4.8597359361446768E-002
  0.18037500000000001         -6.2461985861518771E-002
  0.18075000000000002         -7.5288300429972629E-002
  0.18112500000000004         -8.6741977512488092E-002
  0.18149999999999999         -9.6709027107583265E-002
  0.18187500000000001        -0.10511550196498426     
  0.18225000000000002        -0.11192276748732649     
  0.18262500000000004        -0.11700310156459862     
  0.18300000000000000        -0.12036190724868638     
  0.18337500000000001        -0.12196963897713088     
  0.18375000000000002        -0.12176017596545342     
  0.18412499999999998        -0.11985104355047228     
  0.18450000000000000        -0.11623565763976730     
  0.18487500000000001        -0.11115137489150535     
  0.18525000000000003        -0.10466949311496286     
  0.18562499999999998         -9.7179634481617788E-002
  0.18600000000000000         -8.8818399360776373E-002
  0.18637500000000001         -7.9724780571282600E-002
  0.18675000000000003         -7.0236916775358538E-002
  0.18712499999999999         -6.0301492094085231E-002
  0.18750000000000000         -5.0032868872588676E-002
  0.18787500000000001         -3.9531927405762703E-002
  0.18825000000000003         -2.8780013953923770E-002
  0.18862499999999999         -1.7797371398660753E-002
  0.18900000000000000         -6.8319369313615333E-003