  -1.4999999999999999E-002     0.0000000000000000     
  -1.4624999999999999E-002     0.0000000000000000     
  -1.4249999999999999E-002     0.0000000000000000     
  -1.3874999999999998E-002     0.0000000000000000     
  -1.3500000000000000E-002     0.0000000000000000     
  -1.3125000000000000E-002     0.0000000000000000     
  -1.2749999999999999E-002     0.0000000000000000     
  -1.2374999999999999E-002     0.0000000000000000     
  -1.2000000000000000E-002     0.0000000000000000     
  -1.1625000000000000E-002     0.0000000000000000     
  -1.1250000000000000E-002     0.0000000000000000     
  -1.0874999999999999E-002     0.0000000000000000     
  -1.0499999999999999E-002     0.0000000000000000     
  -1.0124999999999999E-002     0.0000000000000000     
  -9.7499999999999983E-003     0.0000000000000000     
  -9.3749999999999979E-003     0.0000000000000000     
  -8.9999999999999993E-003    -2.3750390118596010E-053
  -8.6249999999999990E-003     2.0329994592164617E-037
  -8.2500000000000004E-003    -1.2339669251719910E-036
  -7.8750000000000001E-003    -6.7655893636873379E-036
  -7.4999999999999989E-003     3.5195311866620471E-034
  -7.1249999999999994E-003    -8.8560296860775284E-034
  -6.7499999999999991E-003    -4.7794553345536932E-033
  -6.3749999999999987E-003     2.0383523457929040E-032
  -5.9999999999999984E-003    -4.0521445279997605E-032
  -5.6249999999999998E-003     7.2736115240282695E-032
  -5.2499999999999995E-003    -1.6721821930907020E-031
  -4.8749999999999991E-003     4.9572419757211042E-031
  -4.4999999999999988E-003    -1.4744489568021221E-030
  -4.1249999999999985E-003     3.6754705405804063E-030
  -3.7499999999999981E-003    -7.1141099277795951E-030
  -3.3749999999999995E-003     9.9724006322198202E-030
  -2.9999999999999992E-003    -7.9407782133924636E-030
  -2.6249999999999989E-003    -4.1621104370608889E-030
  -2.2499999999999985E-003     2.9114567285001670E-029
  -1.8749999999999982E-003    -6.7385856059593828E-029
  -1.4999999999999996E-003     1.2558202064066524E-028
  -1.1249999999999993E-003    -2.2757199435433664E-028
  -7.4999999999999893E-004     4.0989016108819337E-028
  -3.7499999999999860E-004    -6.9260886849379497E-028
   1.7347234759768071E-018     1.0580280012420303E-027
   3.7500000000000207E-004    -1.4951930305704228E-027
   7.5000000000000067E-004     2.0911485500031834E-027
   1.1250000000000010E-003    -2.9574976150033109E-027
   1.5000000000000013E-003     3.7505782371759676E-027
   1.8750000000000017E-003    -3.2469519810042432E-027
   2.2500000000000020E-003     5.5322914833738803E-028
   2.6250000000000023E-003     2.0831807601914068E-027
   3.0000000000000027E-003    -1.8716950489565072E-027
   3.3750000000000030E-003     1.3007576889486465E-026
   3.7499999999999999E-003    -1.2934866819971540E-025
   4.1250000000000002E-003     8.0991753365236712E-025
   4.5000000000000005E-003     3.3034610185004898E-024
   4.8750000000000009E-003     5.7631360121509887E-023
   5.2500000000000012E-003     4.1164158687222925E-023
   5.6250000000000015E-003     6.5701048330574624E-022
   6.0000000000000019E-003     1.4327546458927136E-021
   6.3750000000000022E-003     6.6256213399058193E-021
   6.7500000000000025E-003     2.3095006536869987E-020
   7.1250000000000029E-003     8.3246717759595843E-020
   7.5000000000000032E-003     2.7672966731062863E-019
   7.8750000000000001E-003     1.0031518777598911E-018
   8.2500000000000004E-003     3.2327176946052227E-018
   8.6250000000000007E-003     1.0826788960900714E-017
   9.0000000000000011E-003     3.5037535514504282E-017
   9.3750000000000014E-003     1.1084850475254473E-016
   9.7500000000000017E-003     3.4648056579452868E-016
   1.0125000000000002E-002     1.0601814047253170E-015
   1.0500000000000002E-002     3.1863165015396497E-015
   1.0875000000000003E-002     9.3955516109777291E-015
   1.1250000000000003E-002     2.7214647848290087E-014
   1.1625000000000003E-002     7.7339461055153814E-014
   1.2000000000000000E-002     2.1570188832936484E-013
   1.2375000000000001E-002     5.9067249366713055E-013
   1.2750000000000001E-002     1.5870830704683882E-012
   1.3125000000000001E-002     4.1847388247339588E-012
   1.3500000000000002E-002     1.0831910997906900E-011
   1.3875000000000002E-002     2.7501783428328416E-011
   1.4250000000000002E-002     6.8545800010839094E-011
   1.4625000000000003E-002     1.6757991132892647E-010
   1.5000000000000003E-002     4.0205706798431913E-010
   1.5375000000000003E-002     9.4628859859764681E-010
   1.5750000000000004E-002     2.1849368970804395E-009
   1.6125000000000000E-002     4.9490573713543353E-009
   1.6500000000000001E-002     1.0994925807251821E-008
   1.6875000000000001E-002     2.3958587106657522E-008
   1.7250000000000001E-002     5.1197417396807436E-008
   1.7625000000000002E-002     1.0728374467008550E-007
   1.8000000000000002E-002     2.2042317290493911E-007
   1.8375000000000002E-002     4.4398985140912928E-007
   1.8750000000000003E-002     8.7661664472737146E-007
   1.9125000000000003E-002     1.6963477251603408E-006
   1.9500000000000003E-002     3.2166867061369571E-006
   1.9875000000000004E-002     5.9760029131550137E-006
   2.0250000000000004E-002     1.0875103911137695E-005
   2.0625000000000004E-002     1.9380796460840843E-005
   2.1000000000000005E-002     3.3815018122155104E-005
   2.1375000000000005E-002     5.7744958853055584E-005
   2.1750000000000005E-002     9.6479985903301444E-005
   2.2125000000000006E-002     1.5765464392510932E-004
   2.2499999999999999E-002     2.5183011862033245E-004
   2.2875000000000000E-002     3.9302056008041347E-004
   2.3250000000000000E-002     5.9886954604498248E-004
   2.3625000000000000E-002     8.9027626436181224E-004
   2.4000000000000000E-002     1.2899386705736893E-003
   2.4375000000000001E-002     1.8195085091433651E-003
   2.4750000000000001E-002     2.4946880593962888E-003
   2.5125000000000001E-002     3.3182509420677476E-003
   2.5500000000000002E-002     4.2707983409667749E-003
   2.5875000000000002E-002     5.2995385086164531E-003
   2.6250000000000002E-002     6.3078446777362395E-003
   2.6625000000000003E-002     7.1444828453696785E-003
   2.7000000000000003E-002     7.6008071535130211E-003
   2.7375000000000003E-002     7.4134136786226084E-003
   2.7750000000000004E-002     6.2826291038521297E-003
   2.8125000000000004E-002     3.8997221399794659E-003
   2.8500000000000004E-002     2.0034717764354847E-006
   2.8875000000000005E-002    -5.5776517751764685E-003
   2.9250000000000005E-002    -1.2828354902855620E-002
   2.9625000000000005E-002    -2.1510237634120816E-002
   3.0000000000000006E-002    -3.1096211618830551E-002
   3.0375000000000006E-002    -4.0760585499864131E-002
   3.0750000000000000E-002    -4.9408705847632163E-002
   3.1125000000000000E-002    -5.5761955941777158E-002
   3.1500000000000000E-002    -5.8501738557155569E-002
   3.1875000000000001E-002    -5.6456211913647185E-002
   3.2250000000000001E-002    -4.8807195028828750E-002
   3.2625000000000001E-002    -3.5302519487684973E-002
   3.3000000000000002E-002    -1.6393055673032488E-002
   3.3375000000000002E-002     6.6777285247633395E-003
   3.3750000000000002E-002     3.1927644680599485E-002
   3.4125000000000003E-002     5.6782529948382461E-002
   3.4500000000000003E-002     7.8377377985874741E-002
   3.4875000000000003E-002     9.3875538877172177E-002
   3.5250000000000004E-002    0.10088119725787641     
   3.5625000000000004E-002     9.7778004069106514E-002
   3.6000000000000004E-002     8.3978743289278318E-002
   3.6375000000000005E-002     6.0078063335672158E-002
   3.6750000000000005E-002     2.7739663910184505E-002
   3.7125000000000005E-002    -1.0433124023539072E-002
   3.7500000000000006E-002    -5.1321004485784062E-002
   3.7875000000000006E-002    -9.1593751473234369E-002
   3.8250000000000006E-002   -0.12819985985787347     
   3.8625000000000007E-002   -0.15860033462510312     
   3.9000000000000000E-002   -0.18095068804088479     
   3.9375000000000000E-002   -0.19413192276938107     
   3.9750000000000001E-002   -0.19753948364520338     
   4.0125000000000001E-002   -0.19080651327620979     
   4.0500000000000001E-002   -0.17349819361732649     
   4.0875000000000002E-002   -0.14485441422245454     
   4.1250000000000002E-002   -0.10366737863663672     
   4.1625000000000002E-002    -4.8402548062969737E-002
   4.2000000000000003E-002     2.2423796120023431E-002
   4.2375000000000003E-002    0.10968091207075650     
   4.2750000000000003E-002    0.21291525415816645     
   4.3125000000000004E-002    0.32962068113473364     
   4.3500000000000004E-002    0.45476195417651183     
   4.3875000000000004E-002    0.58058718654521813     
   4.4250000000000005E-002    0.69680257461797579     
   4.4625000000000005E-002    0.79138510208574941     
   4.5000000000000005E-002    0.85185267345429083     
   4.5375000000000006E-002    0.86655076293819333     
   4.5750000000000006E-002    0.82653699473036191     
   4.6125000000000006E-002    0.72683225431429865     
   4.6500000000000007E-002    0.56760383490662436     
   4.6875000000000007E-002    0.35456516341924826     
   4.7250000000000000E-002     9.8920015021652166E-002
   4.7625000000000001E-002   -0.18385320160927709     
   4.8000000000000001E-002   -0.47503825451429277     
   4.8375000000000001E-002   -0.75470310673685370     
   4.8750000000000002E-002    -1.0037645631253520     
   4.9125000000000002E-002    -1.2052518090579207     
   4.9500000000000002E-002    -1.3461606489835030     
   4.9875000000000003E-002    -1.4181694961980551     
   5.0250000000000003E-002    -1.4179112000685417     
   5.0625000000000003E-002    -1.3471652651482149     
   5.1000000000000004E-002    -1.2122658239489057     
   5.1375000000000004E-002    -1.0233809218761933     
   5.1750000000000004E-002   -0.79364824404846401     
   5.2125000000000005E-002   -0.53826115955648968     
   5.2500000000000005E-002   -0.27342557917774313     
   5.2875000000000005E-002    -1.5097037152232859E-002
   5.3250000000000006E-002    0.22178818883251286     
   5.3625000000000006E-002    0.42461346126309518     
   5.4000000000000006E-002    0.58385129387271539     
   5.4375000000000007E-002    0.69390906655264883     
   5.4750000000000007E-002    0.75340924561630063     
   5.5125000000000007E-002    0.76522683476284126     
   5.5500000000000008E-002    0.73599892987892768     
   5.5875000000000008E-002    0.67514270126083809     
   5.6250000000000008E-002    0.59393949277477454     
   5.6625000000000009E-002    0.50401867759295294     
   5.7000000000000009E-002    0.41615625594451450     
   5.7375000000000009E-002    0.33938577195716957     
   5.7750000000000010E-002    0.28028163862910044     
   5.8125000000000010E-002    0.24282279138165105     
   5.8500000000000010E-002    0.22854405897046004     
   5.8875000000000011E-002    0.23676569829229835     
   5.9250000000000011E-002    0.26518187958090605     
   5.9624999999999997E-002    0.31028530813553395     
   5.9999999999999998E-002    0.36710270823533164     
   6.0374999999999998E-002    0.42951662043883904     
   6.0749999999999998E-002    0.48968692771809880     
   6.1124999999999999E-002    0.53777499974663789     
   6.1499999999999999E-002    0.56226568689698941     
   6.1874999999999999E-002    0.55017955355548642     
   6.2250000000000000E-002    0.48839043585141267     
   6.2625000000000000E-002    0.36614742093303754     
   6.3000000000000000E-002    0.17720008181522118     
   6.3375000000000001E-002    -7.7234576140241706E-002
   6.3750000000000001E-002   -0.38577128698188912     
   6.4125000000000001E-002   -0.72614244364081681     
   6.4500000000000002E-002    -1.0651212322318617     
   6.4875000000000002E-002    -1.3613160683274144     
   6.5250000000000002E-002    -1.5698473985896813     
   6.5625000000000003E-002    -1.6484911608992099     
   6.6000000000000003E-002    -1.5647586797018449     
   6.6375000000000003E-002    -1.3025051660996991     
   6.6750000000000004E-002   -0.86688036238987498     
   6.7125000000000004E-002   -0.28640684877125194     
   6.7500000000000004E-002    0.38855931031587987     
   6.7875000000000005E-002     1.0904487748059741     
   6.8250000000000005E-002     1.7425819752495890     
   6.8625000000000005E-002     2.2687353534600150     
   6.9000000000000006E-002     2.6033296124736398     
   6.9375000000000006E-002     2.6999083825740158     
   6.9750000000000006E-002     2.5376224806194410     
   7.0125000000000007E-002     2.1235556416307784     
   7.0500000000000007E-002     1.4915785124586360     
   7.0875000000000007E-002    0.69819851918921860     
   7.1250000000000008E-002   -0.18554328275339033     
   7.1625000000000008E-002    -1.0816857699013580     
   7.2000000000000008E-002    -1.9147378974914304     
   7.2375000000000009E-002    -2.6190309109144576     
   7.2750000000000009E-002    -3.1442899364492667     
   7.3125000000000009E-002    -3.4594087585552526     
   7.3500000000000010E-002    -3.5528447544843993     
   7.3875000000000010E-002    -3.4314869963867345     
   7.4250000000000010E-002    -3.1179079312850639     
   7.4625000000000011E-002    -2.6456839480188954     
   7.5000000000000011E-002    -2.0557084365525986     
   7.5375000000000011E-002    -1.3917383817973361     
   7.5750000000000012E-002   -0.69602920846944349     
   7.6124999999999998E-002    -7.6917777658733408E-003
   7.6499999999999999E-002    0.64039832369957894     
   7.6874999999999999E-002     1.2220718064314520     
   7.7249999999999999E-002     1.7180499231169053     
   7.7625000000000000E-002     2.1162842037284824     
   7.8000000000000000E-002     2.4107880152196990     
   7.8375000000000000E-002     2.6007603791454783     
   7.8750000000000001E-002     2.6899231641593127     
   7.9125000000000001E-002     2.6853997880327998     
   7.9500000000000001E-002     2.5966899992281980     
   7.9875000000000002E-002     2.4352455292051105     
   8.0250000000000002E-002     2.2130733551965172     
   8.0625000000000002E-002     1.9431552517671686     
   8.1000000000000003E-002     1.6379875944707420     
   8.1375000000000003E-002     1.3096933592976165     
   8.1750000000000003E-002    0.96992152615004934     
   8.2125000000000004E-002    0.62866058107951006     
   8.2500000000000004E-002    0.29535035948401567     
   8.2875000000000004E-002    -2.1962108210088108E-002
   8.3250000000000005E-002   -0.31677707137355188     
   8.3625000000000005E-002   -0.58378077020557884     
   8.4000000000000005E-002   -0.81889727065604667     
   8.4375000000000006E-002    -1.0190838440895695     
   8.4750000000000006E-002    -1.1828952973168829     
   8.5125000000000006E-002    -1.3097537727984490     
   8.5500000000000007E-002    -1.3995412529819908     
   8.5875000000000007E-002    -1.4536216372154187     
   8.6250000000000007E-002    -1.4736398546390423     
   8.6625000000000008E-002    -1.4616498086552505     
   8.7000000000000008E-002    -1.4206886223191144     
   8.7375000000000008E-002    -1.3535751051927805     
   8.7750000000000009E-002    -1.2637279718663577     
   8.8125000000000009E-002    -1.1548819596194690     
   8.8500000000000009E-002    -1.0303913869583770     
   8.8875000000000010E-002   -0.89416866459788147     
   8.9250000000000010E-002   -0.74969947599114573     
   8.9625000000000010E-002   -0.60047874398239454     
   9.0000000000000011E-002   -0.44981699990947782     
   9.0375000000000011E-002   -0.30062407072746838     
   9.0750000000000011E-002   -0.15582566869929124     
   9.1125000000000012E-002    -1.7660937159459253E-002
   9.1500000000000012E-002    0.11166696684050446     
   9.1875000000000012E-002    0.23055413397847402     
   9.2250000000000013E-002    0.33766567303122308     
   9.2624999999999999E-002    0.43195390533841593     
   9.2999999999999999E-002    0.51311543171961183     
   9.3375000000000000E-002    0.58069332630344550     
   9.3750000000000000E-002    0.63486864619562167     
   9.4125000000000000E-002    0.67587148816950637     
   9.4500000000000001E-002    0.70410381224958285     
   9.4875000000000001E-002    0.72018560060957959     
   9.5250000000000001E-002    0.72478202924131818     
   9.5625000000000002E-002    0.71851313145732698     
   9.6000000000000002E-002    0.70215081160120363     
   9.6375000000000002E-002    0.67664708608987212     
   9.6750000000000003E-002    0.64266117376799892     
   9.7125000000000003E-002    0.60103216559930417     
   9.7500000000000003E-002    0.55280426535893656     
   9.7875000000000004E-002    0.49883731050180202     
   9.8250000000000004E-002    0.43980564049028437     
   9.8625000000000004E-002    0.37726480567764720     
   9.9000000000000005E-002    0.31182194298282601     
   9.9375000000000005E-002    0.24451873085236797     
   9.9750000000000005E-002    0.17684971169737812     
  0.10012500000000001         0.10958496619645255     
  0.10050000000000001          4.3669955702327901E-002
  0.10087500000000001         -1.9715635077780229E-002
  0.10125000000000001         -7.9893296867080715E-002
  0.10162500000000001        -0.13622472661382756     
  0.10200000000000001        -0.18789294885972022     
  0.10237500000000001        -0.23467070650793978     
  0.10275000000000001        -0.27609966294020372     
  0.10312500000000001        -0.31181766492885171     
  0.10350000000000001        -0.34161275043374717     
  0.10387500000000001        -0.36564459334549787     
  0.10425000000000001        -0.38354062210664597     
  0.10462500000000001        -0.39547840035447124     
  0.10500000000000001        -0.40153176398540885     
  0.10537500000000001        -0.40168224265674268     
  0.10575000000000001        -0.39631904217671760     
  0.10612500000000001        -0.38543596659546453     
  0.10650000000000001        -0.36939615665413522     
  0.10687500000000001        -0.34853197922088752     
  0.10725000000000001        -0.32329680755051399     
  0.10762500000000001        -0.29437498342120832     
  0.10800000000000001        -0.26212109118416466     
  0.10837500000000001        -0.22724973018394645     
  0.10875000000000001        -0.19084392618136506     
  0.10912500000000000        -0.15316952332963657     
  0.10950000000000000        -0.11511195841238009     
  0.10987500000000000         -7.7334620532861220E-002
  0.11025000000000000         -4.0401398923745828E-002
  0.11062500000000001         -4.9642775224606325E-003
  0.11100000000000000          2.8653359175483610E-002
  0.11137500000000002          6.0111621880205225E-002
  0.11175000000000000          8.8994874687190945E-002
  0.11212500000000002         0.11520237401491369     
  0.11250000000000000         0.13864810595220306     
  0.11287500000000002         0.15926430413255088     
  0.11325000000000000         0.17711186269899606     
  0.11362500000000002         0.19210639037399288     
  0.11400000000000000         0.20429327832722810     
  0.11437500000000002         0.21363930731171846     
  0.11475000000000000         0.22036858727044595     
  0.11512500000000002         0.22405957324679107     
  0.11550000000000001         0.22496519692709102     
  0.11587500000000002         0.22310341045431969     
  0.11625000000000001         0.21839700180155266     
  0.11662500000000002         0.21108814407344853     
  0.11700000000000001         0.20105072922248615     
  0.11737499999999999         0.18876301433529297     
  0.11775000000000001         0.17431082154536340     
  0.11812499999999999         0.15789357144329000     
  0.11850000000000001         0.14013353424741895     
  0.11887499999999999         0.12102670277194791     
  0.11925000000000001         0.10114329203406010     
  0.11962500000000000          8.1011443569584327E-002
  0.12000000000000001          6.0551106759088168E-002
  0.12037500000000000          4.0471950254112633E-002
  0.12075000000000001          2.0706563491316856E-002
  0.12112500000000000          1.5019306914520658E-003
  0.12150000000000001         -1.6757838710489102E-002
  0.12187500000000000         -3.4439282535011620E-002
  0.12225000000000001         -5.1150578996278513E-002
  0.12262500000000000         -6.6797003785417114E-002
  0.12300000000000001         -8.1422346309757962E-002
  0.12337500000000000         -9.4891109961139308E-002
  0.12375000000000001        -0.10693085420486269     
  0.12412500000000000        -0.11763228415892997     
  0.12450000000000001        -0.12667639847514603     
  0.12487500000000000        -0.13390541480165011     
  0.12525000000000003        -0.13917837503256220     
  0.12562499999999999        -0.14255145684667225     
  0.12600000000000000        -0.14361354633900864     
  0.12637500000000002        -0.14243717140884504     
  0.12675000000000003        -0.13932084622020871     
  0.12712499999999999        -0.13396931134308837     
  0.12750000000000000        -0.12695000785530530     
  0.12787500000000002        -0.11839284460644983     
  0.12825000000000003        -0.10838647013018329     
  0.12862499999999999         -9.7717987299800149E-002
  0.12900000000000000         -8.6276251079248911E-002
  0.12937500000000002         -7.4441704978378528E-002
  0.12975000000000003         -6.2423705735527441E-002
  0.13012499999999999         -5.0433222190730452E-002
  0.13050000000000000         -3.8581130402751240E-002
  0.13087500000000002         -2.6699751448714434E-002
  0.13125000000000003         -1.5179833766924632E-002
  0.13162499999999999         -3.7430002268905764E-003
  0.13200000000000001          7.5193688886797195E-003
  0.13237500000000002          1.8516693160903350E-002
  0.13275000000000003          2.9285713943062449E-002
  0.13312499999999999          3.9770301591205148E-002
  0.13350000000000001          4.9727549995352158E-002
  0.13387500000000002          5.8929025246310454E-002
  0.13424999999999998          6.7342000461218743E-002
  0.13462499999999999          7.4717855967335711E-002
  0.13500000000000001          8.0756022783166723E-002
  0.13537500000000002          8.5361646358343660E-002
  0.13574999999999998          8.8704971904823904E-002
  0.13612500000000000          9.0425535159250406E-002
  0.13650000000000001          9.0817141869448600E-002
  0.13687500000000002          8.9903313430128154E-002
  0.13724999999999998          8.7766519364274848E-002
  0.13762500000000000          8.4693233216319427E-002
  0.13800000000000001          8.0708578927532276E-002
  0.13837500000000003          7.6072173011769773E-002
  0.13874999999999998          7.0875558055688806E-002
  0.13912500000000000          6.5360878852949569E-002
  0.13950000000000001          5.9562916264889146E-002
  0.13987500000000003          5.3456971096815298E-002
  0.14024999999999999          4.7281574843100929E-002
  0.14062500000000000          4.0787832744715667E-002
  0.14100000000000001          3.3920655859498383E-002
  0.14137500000000003          2.6785432750761090E-002
  0.14174999999999999          1.9088545182284207E-002
  0.14212500000000000          1.0969492463820714E-002
  0.14250000000000002          2.6560273689055173E-003
  0.14287500000000003         -6.0300079697641522E-003
  0.14324999999999999         -1.4539371847680602E-002
  0.14362500000000000         -2.2736849768244416E-002
  0.14400000000000002         -3.0309100579872537E-002
  0.14437500000000003         -3.7155576067691660E-002
  0.14474999999999999         -4.3013880370337931E-002
  0.14512500000000000         -4.7655920933236340E-002
  0.14550000000000002         -5.1534166950982695E-002
  0.14587500000000003         -5.4447514018093814E-002
  0.14624999999999999         -5.6255323412967406E-002
  0.14662500000000001         -5.7734988623859736E-002
  0.14700000000000002         -5.8349769930223651E-002
  0.14737500000000003         -5.8423156514589999E-002
  0.14774999999999999         -5.8069247771930795E-002
  0.14812500000000001         -5.7035457681855639E-002
  0.14850000000000002         -5.5482376032056441E-002
  0.14887500000000004         -5.3402385836604928E-002
  0.14924999999999999         -5.0815174382744251E-002
  0.14962500000000001         -4.7813431611323051E-002
  0.15000000000000002         -4.4295417584550273E-002
  0.15037499999999998         -4.0570821684227501E-002
  0.15075000000000000         -3.6588623088010697E-002
  0.15112500000000001         -3.2180456431292824E-002
  0.15150000000000002         -2.7573587872038847E-002
  0.15187499999999998         -2.2502518942307276E-002
  0.15225000000000000         -1.7205505486441293E-002
  0.15262500000000001         -1.1641633348408316E-002
  0.15300000000000002         -5.7573757299031044E-003
  0.15337499999999998          6.8964760901549449E-005
  0.15375000000000000          5.7899216842661515E-003
  0.15412500000000001          1.1142562458821134E-002
  0.15450000000000003          1.6091132829735594E-002
  0.15487499999999998          2.0546740713631020E-002
  0.15525000000000000          2.4367900033997490E-002
  0.15562500000000001          2.7690507149626429E-002
  0.15600000000000003          3.0509928844772889E-002
  0.15637499999999999          3.2926262877443421E-002
  0.15675000000000000          3.5005780134330242E-002
  0.15712500000000001          3.6669484473926574E-002
  0.15750000000000003          3.7984990397243193E-002
  0.15787499999999999          3.9007311219667079E-002
  0.15825000000000000          3.9796691317216859E-002
  0.15862500000000002          3.9936352490195975E-002
  0.15900000000000003          3.9826588125839529E-002
  0.15937499999999999          3.9219554657837510E-002
  0.15975000000000000          3.8076286874391872E-002
  0.16012500000000002          3.6388241953027263E-002
  0.16050000000000003          3.4138896674731557E-002
  0.16087499999999999          3.1297707680912716E-002
  0.16125000000000000          2.8123206618545369E-002
  0.16162500000000002          2.4573318254980266E-002
  0.16200000000000003          2.0773671881866278E-002
  0.16237499999999999          1.6910328133756938E-002
  0.16275000000000001          1.3121525810691507E-002
  0.16312500000000002          9.5499109633317755E-003
  0.16350000000000003          5.9903670586328658E-003
  0.16387499999999999          2.7342845394162643E-003
  0.16425000000000001         -3.6994891060501201E-004
  0.16462500000000002         -3.3302693328237654E-003
  0.16500000000000004         -6.0001949065550658E-003
  0.16537499999999999         -8.7804618186854665E-003
  0.16575000000000001         -1.1416222474151931E-002
  0.16612500000000002         -1.3836692533987782E-002
  0.16650000000000004         -1.6333134854440146E-002
  0.16687500000000000         -1.8920619348457981E-002
  0.16725000000000001         -2.1206060474380364E-002
  0.16762500000000002         -2.3436576344093216E-002
  0.16799999999999998         -2.5503847915954832E-002
  0.16837500000000000         -2.7199772862488501E-002
  0.16875000000000001         -2.8432782019993511E-002
  0.16912500000000003         -2.9215667370813794E-002
  0.16949999999999998         -2.9361056841303575E-002
  0.16987500000000000         -2.8944884933368283E-002
  0.17025000000000001         -2.8093282719892126E-002
  0.17062500000000003         -2.6688163546263060E-002
  0.17099999999999999         -2.4931573046373220E-002
  0.17137500000000000         -2.2957892953720985E-002
  0.17175000000000001         -2.0763223963035780E-002
  0.17212500000000003         -1.8602915333461801E-002
  0.17249999999999999         -1.6272514069770636E-002
  0.17287500000000000         -1.4078503451652765E-002
  0.17325000000000002         -1.2090368014734119E-002
  0.17362500000000003         -9.9781590509777224E-003
  0.17399999999999999         -8.1243936078155016E-003
  0.17437500000000000         -6.2668465355618678E-003
  0.17475000000000002         -4.3249698552069501E-003
  0.17512500000000003         -2.3074467885257194E-003
  0.17549999999999999         -1.5588309350320127E-004
  0.17587500000000000          2.2000205526488967E-003
  0.17625000000000002          4.7801339228535937E-003
  0.17662500000000003          7.3907780512123978E-003
  0.17699999999999999          9.9620643981161924E-003
  0.17737500000000000          1.2565934735598361E-002
  0.17775000000000002          1.4817959816700270E-002
  0.17812500000000003          1.6759516221332902E-002
  0.17849999999999999          1.8363498745726469E-002
  0.17887500000000001          1.9387083693799143E-002
  0.17925000000000002          2.0051527188995898E-002
  0.17962500000000003          2.0242115085110840E-002
  0.17999999999999999          1.9971550442491728E-002
  0.18037500000000001          1.9491970932196328E-002
  0.18075000000000002          1.8630785732284480E-002
  0.18112500000000004          1.7723446588521732E-002
  0.18149999999999999          1.6791960678762940E-002
  0.18187500000000001          1.5872364068647130E-002
  0.18225000000000002          1.5082795394213630E-002
  0.18262500000000004          1.4286007908864983E-002
  0.18300000000000000          1.3727072469505500E-002
  0.18337500000000001          1.3080107102235684E-002
  0.18375000000000002          1.2228462527849518E-002
  0.18412499999999998          1.1315255969115765E-002
  0.18450000000000000          1.0157093117064045E-002
  0.18487500000000001          8.6023381253796122E-003
  0.18525000000000003          6.9099647779024163E-003
  0.18562499999999998          4.8349294726249227E-003
  0.18600000000000000          2.6359403899023728E-003
  0.18637500000000001          3.7142628210446842E-004
  0.18675000000000003         -1.9904873380727161E-003
  0.18712499999999999         -4.2896968753223276E-003
  0.18750000000000000         -6.3123840317250981E-003
  0.18787500000000001         -8.1787714885670007E-003
  0.18825000000000003         -9.6690388847419338E-003
  0.18862499999999999         -1.0706003120278265E-002
  0.18900000000000000         -1.1573980104467408E-002