  -1.4999999999999999E-002     0.0000000000000000     
  -1.4624999999999999E-002     0.0000000000000000     
  -1.4249999999999999E-002     0.0000000000000000     
  -1.3874999999999998E-002     0.0000000000000000     
  -1.3500000000000000E-002     0.0000000000000000     
  -1.3125000000000000E-002     0.0000000000000000     
  -1.2749999999999999E-002     0.0000000000000000     
  -1.2374999999999999E-002     0.0000000000000000     
  -1.2000000000000000E-002     0.0000000000000000     
  -1.1625000000000000E-002     0.0000000000000000     
  -1.1250000000000000E-002     0.0000000000000000     
  -1.0874999999999999E-002     0.0000000000000000     
  -1.0499999999999999E-002     0.0000000000000000     
  -1.0124999999999999E-002     0.0000000000000000     
  -9.7499999999999983E-003     0.0000000000000000     
  -9.3749999999999979E-003     0.0000000000000000     
  -8.9999999999999993E-003     0.0000000000000000     
  -8.6249999999999990E-003     0.0000000000000000     
  -8.2500000000000004E-003     0.0000000000000000     
  -7.8750000000000001E-003     0.0000000000000000     
  -7.4999999999999989E-003     0.0000000000000000     
  -7.1249999999999994E-003     0.0000000000000000     
  -6.7499999999999991E-003     0.0000000000000000     
  -6.3749999999999987E-003     0.0000000000000000     
  -5.9999999999999984E-003     0.0000000000000000     
  -5.6249999999999998E-003     0.0000000000000000     
  -5.2499999999999995E-003     0.0000000000000000     
  -4.8749999999999991E-003     0.0000000000000000     
  -4.4999999999999988E-003     0.0000000000000000     
  -4.1249999999999985E-003     0.0000000000000000     
  -3.7499999999999981E-003     0.0000000000000000     
  -3.3749999999999995E-003     0.0000000000000000     
  -2.9999999999999992E-003     0.0000000000000000     
  -2.6249999999999989E-003     0.0000000000000000     
  -2.2499999999999985E-003     0.0000000000000000     
  -1.8749999999999982E-003     0.0000000000000000     
  -1.4999999999999996E-003     0.0000000000000000     
  -1.1249999999999993E-003     0.0000000000000000     
  -7.4999999999999893E-004     0.0000000000000000     
  -3.7499999999999860E-004     0.0000000000000000     
   1.7347234759768071E-018     0.0000000000000000     
   3.7500000000000207E-004     0.0000000000000000     
   7.5000000000000067E-004     0.0000000000000000     
   1.1250000000000010E-003     0.0000000000000000     
   1.5000000000000013E-003     0.0000000000000000     
   1.8750000000000017E-003     0.0000000000000000     
   2.2500000000000020E-003     0.0000000000000000     
   2.6250000000000023E-003     0.0000000000000000     
   3.0000000000000027E-003     0.0000000000000000     
   3.3750000000000030E-003     0.0000000000000000     
   3.7499999999999999E-003     0.0000000000000000     
   4.1250000000000002E-003     0.0000000000000000     
   4.5000000000000005E-003     0.0000000000000000     
   4.8750000000000009E-003     0.0000000000000000     
   5.2500000000000012E-003     0.0000000000000000     
   5.6250000000000015E-003     0.0000000000000000     
   6.0000000000000019E-003     0.0000000000000000     
   6.3750000000000022E-003     0.0000000000000000     
   6.7500000000000025E-003     0.0000000000000000     
   7.1250000000000029E-003     0.0000000000000000     
   7.5000000000000032E-003     0.0000000000000000     
   7.8750000000000001E-003     0.0000000000000000     
   8.2500000000000004E-003     0.0000000000000000     
   8.6250000000000007E-003     0.0000000000000000     
   9.0000000000000011E-003     0.0000000000000000     
   9.3750000000000014E-003     0.0000000000000000     
   9.7500000000000017E-003     0.0000000000000000     
   1.0125000000000002E-002     0.0000000000000000     
   1.0500000000000002E-002     0.0000000000000000     
   1.0875000000000003E-002     0.0000000000000000     
   1.1250000000000003E-002     0.0000000000000000     
   1.1625000000000003E-002    -1.4058228871233273E-036
   1.2000000000000000E-002     1.0001010657468758E-034
   1.2375000000000001E-002     6.7055207397218698E-034
   1.2750000000000001E-002     4.1344729752831353E-033
   1.3125000000000001E-002    -1.1011443331327778E-031
   1.3500000000000002E-002    -4.5799592088828353E-031
   1.3875000000000002E-002     4.2245491501885531E-030
   1.4250000000000002E-002     7.0810696357940882E-030
   1.4625000000000003E-002    -1.4387782427578800E-028
   1.5000000000000003E-002     5.3066572945860356E-028
   1.5375000000000003E-002    -1.7406176873620252E-028
   1.5750000000000004E-002    -7.4916055571939108E-027
   1.6125000000000000E-002     4.4691484774905711E-026
   1.6500000000000001E-002    -1.8539887880594742E-025
   1.6875000000000001E-002     9.4365405166426017E-025
   1.7250000000000001E-002     4.8703112662814594E-024
   1.7625000000000002E-002     1.7961372002585481E-023
   1.8000000000000002E-002     6.7900419866880612E-023
   1.8375000000000002E-002     2.5706884210943404E-022
   1.8750000000000003E-002     9.5476373046492057E-022
   1.9125000000000003E-002     3.4828068106504435E-021
   1.9500000000000003E-002     1.2471751870076486E-020
   1.9875000000000004E-002     4.3852382407259222E-020
   2.0250000000000004E-002     1.5138932908914215E-019
   2.0625000000000004E-002     5.1312650034866819E-019
   2.1000000000000005E-002     1.7075774762243481E-018
   2.1375000000000005E-002     5.5789126103286885E-018
   2.1750000000000005E-002     1.7894727409243444E-017
   2.2125000000000006E-002     5.6351487324272898E-017
   2.2499999999999999E-002     1.7420818100082828E-016
   2.2875000000000000E-002     5.2870991886313536E-016
   2.3250000000000000E-002     1.5751859850317621E-015
   2.3625000000000000E-002     4.6069063209977328E-015
   2.4000000000000000E-002     1.3226105222152468E-014
   2.4375000000000001E-002     3.7273135966575666E-014
   2.4750000000000001E-002     1.0310427235290034E-013
   2.5125000000000001E-002     2.7994631352640242E-013
   2.5500000000000002E-002     7.4604618273063639E-013
   2.5875000000000002E-002     1.9513683204019916E-012
   2.6250000000000002E-002     5.0092742454044270E-012
   2.6625000000000003E-002     1.2620111553007796E-011
   2.7000000000000003E-002     3.1201763395216631E-011
   2.7375000000000003E-002     7.5701812873862906E-011
   2.7750000000000004E-002     1.8023005310396911E-010
   2.8125000000000004E-002     4.2103023845108112E-010
   2.8500000000000004E-002     9.6504171320788146E-010
   2.8875000000000005E-002     2.1701960228881489E-009
   2.9250000000000005E-002     4.7878438991233452E-009
   2.9625000000000005E-002     1.0362278146658355E-008
   3.0000000000000006E-002     2.1998575405746124E-008
   3.0375000000000006E-002     4.5807585280499552E-008
   3.0750000000000000E-002     9.3549680002524838E-008
   3.1125000000000000E-002     1.8735700280103629E-007
   3.1500000000000000E-002     3.6793883850805287E-007
   3.1875000000000001E-002     7.0845629807081423E-007
   3.2250000000000001E-002     1.3373307865549577E-006
   3.2625000000000001E-002     2.4744788333919132E-006
   3.3000000000000002E-002     4.4874086597701535E-006
   3.3375000000000002E-002     7.9744713730178773E-006
   3.3750000000000002E-002     1.3884717191103846E-005
   3.4125000000000003E-002     2.3681319362367503E-005
   3.4500000000000003E-002     3.9556693081976846E-005
   3.4875000000000003E-002     6.4696578192524612E-005
   3.5250000000000004E-002     1.0357826977269724E-004
   3.5625000000000004E-002     1.6227584274020046E-004
   3.6000000000000004E-002     2.4869959452189505E-004
   3.6375000000000005E-002     3.7272213376127183E-004
   3.6750000000000005E-002     5.4596777772530913E-004
   3.7125000000000005E-002     7.8128022141754627E-004
   3.7500000000000006E-002     1.0915129678323865E-003
   3.7875000000000006E-002     1.4877566136419773E-003
   3.8250000000000006E-002     1.9765903707593679E-003
   3.8625000000000007E-002     2.5571594014763832E-003
   3.9000000000000000E-002     3.2172719947993755E-003
   3.9375000000000000E-002     3.9301291108131409E-003
   3.9750000000000001E-002     4.6516223810613155E-003
   4.0125000000000001E-002     5.3208046592772007E-003
   4.0500000000000001E-002     5.8599445037543774E-003
   4.0875000000000002E-002     6.1823623254895210E-003
   4.1250000000000002E-002     6.2009003013372421E-003
   4.1625000000000002E-002     5.8405240997672081E-003
   4.2000000000000003E-002     5.0563188269734383E-003
   4.2375000000000003E-002     3.8428776897490025E-003
   4.2750000000000003E-002     2.2526215761899948E-003
   4.3125000000000004E-002     3.9404601557180285E-004
   4.3500000000000004E-002    -1.5641709323972464E-003
   4.3875000000000004E-002    -3.4200318623334169E-003
   4.4250000000000005E-002    -4.9545932561159134E-003
   4.4625000000000005E-002    -5.9772958047688007E-003
   4.5000000000000005E-002    -6.3595059327781200E-003
   4.5375000000000006E-002    -6.0763196088373661E-003
   4.5750000000000006E-002    -5.2324472926557064E-003
   4.6125000000000006E-002    -4.0669124573469162E-003
   4.6500000000000007E-002    -2.9444780666381121E-003
   4.6875000000000007E-002    -2.3107337765395641E-003
   4.7250000000000000E-002    -2.6349213439971209E-003
   4.7625000000000001E-002    -4.3372083455324173E-003
   4.8000000000000001E-002    -7.7003189362585545E-003
   4.8375000000000001E-002    -1.2826327234506607E-002
   4.8750000000000002E-002    -1.9561985507607460E-002
   4.9125000000000002E-002    -2.7522915974259377E-002
   4.9500000000000002E-002    -3.6086704581975937E-002
   4.9875000000000003E-002    -4.4481426477432251E-002
   5.0250000000000003E-002    -5.1851231604814529E-002
   5.0625000000000003E-002    -5.7371273636817932E-002
   5.1000000000000004E-002    -6.0344666242599487E-002
   5.1375000000000004E-002    -6.0279175639152527E-002
   5.1750000000000004E-002    -5.6953921914100647E-002
   5.2125000000000005E-002    -5.0429191440343857E-002
   5.2500000000000005E-002    -4.1034221649169922E-002
   5.2875000000000005E-002    -2.9299279674887657E-002
   5.3250000000000006E-002    -1.5916142612695694E-002
   5.3625000000000006E-002    -1.6079285414889455E-003
   5.4000000000000006E-002     1.2912490405142307E-002
   5.4375000000000007E-002     2.7031380683183670E-002
   5.4750000000000007E-002     4.0279775857925415E-002
   5.5125000000000007E-002     5.2339199930429459E-002
   5.5500000000000008E-002     6.3044629991054535E-002
   5.5875000000000008E-002     7.2364568710327148E-002
   5.6250000000000008E-002     8.0325581133365631E-002
   5.6625000000000009E-002     8.7018296122550964E-002
   5.7000000000000009E-002     9.2507690191268921E-002
   5.7375000000000009E-002     9.6841409802436829E-002
   5.7750000000000010E-002     9.9989585578441620E-002
   5.8125000000000010E-002    0.10187701135873795     
   5.8500000000000010E-002    0.10238880664110184     
   5.8875000000000011E-002    0.10136384516954422     
   5.9250000000000011E-002     9.8637066781520844E-002
   5.9624999999999997E-002     9.4055347144603729E-002
   5.9999999999999998E-002     8.7474927306175232E-002
   6.0374999999999998E-002     7.8805863857269287E-002
   6.0749999999999998E-002     6.7978627979755402E-002
   6.1124999999999999E-002     5.4973751306533813E-002
   6.1499999999999999E-002     3.9811775088310242E-002
   6.1874999999999999E-002     2.2608667612075806E-002
   6.2250000000000000E-002     3.5439173225313425E-003
   6.2625000000000000E-002    -1.7059462144970894E-002
   6.3000000000000000E-002    -3.8747191429138184E-002
   6.3375000000000001E-002    -6.0893744230270386E-002
   6.3750000000000001E-002    -8.2697980105876923E-002
   6.4125000000000001E-002   -0.10322246700525284     
   6.4500000000000002E-002   -0.12143970280885696     
   6.4875000000000002E-002   -0.13627669215202332     
   6.5250000000000002E-002   -0.14676462113857269     
   6.5625000000000003E-002   -0.15207624435424805     
   6.6000000000000003E-002   -0.15166004002094269     
   6.6375000000000003E-002   -0.14528189599514008     
   6.6750000000000004E-002   -0.13307476043701172     
   6.7125000000000004E-002   -0.11554490774869919     
   6.7500000000000004E-002    -9.3533098697662354E-002
   6.7875000000000005E-002    -6.8125627934932709E-002
   6.8250000000000005E-002    -4.0605690330266953E-002
   6.8625000000000005E-002    -1.2346200644969940E-002
   6.9000000000000006E-002     1.5276430174708366E-002
   6.9375000000000006E-002     4.0953960269689560E-002
   6.9750000000000006E-002     6.3489824533462524E-002
   7.0125000000000007E-002     8.1837378442287445E-002
   7.0500000000000007E-002     9.5139287412166595E-002
   7.0875000000000007E-002    0.10269166529178619     
   7.1250000000000008E-002    0.10405221581459045     
   7.1625000000000008E-002     9.8972491919994354E-002
   7.2000000000000008E-002     8.7494343519210815E-002
   7.2375000000000009E-002     6.9962911307811737E-002
   7.2750000000000009E-002     4.7038339078426361E-002
   7.3125000000000009E-002     1.9743705168366432E-002
   7.3500000000000010E-002    -1.0555492714047432E-002
   7.3875000000000010E-002    -4.2235888540744781E-002
   7.4250000000000010E-002    -7.3403559625148773E-002
   7.4625000000000011E-002   -0.10210538655519485     
   7.5000000000000011E-002   -0.12638349831104279     
   7.5375000000000011E-002   -0.14447337388992310     
   7.5750000000000012E-002   -0.15496835112571716     
   7.6124999999999998E-002   -0.15689975023269653     
   7.6499999999999999E-002   -0.14990927278995514     
   7.6874999999999999E-002   -0.13425900042057037     
   7.7249999999999999E-002   -0.11084786802530289     
   7.7625000000000000E-002    -8.1114597618579865E-002
   7.8000000000000000E-002    -4.6955112367868423E-002
   7.8375000000000000E-002    -1.0458070784807205E-002
   7.8750000000000001E-002     2.6177618652582169E-002
   7.9125000000000001E-002     6.0964405536651611E-002
   7.9500000000000001E-002     9.2249050736427307E-002
   7.9875000000000002E-002    0.11881554126739502     
   8.0250000000000002E-002    0.13999651372432709     
   8.0625000000000002E-002    0.15557147562503815     
   8.1000000000000003E-002    0.16576682031154633     
   8.1375000000000003E-002    0.17101399600505829     
   8.1750000000000003E-002    0.17185086011886597     
   8.2125000000000004E-002    0.16872681677341461     
   8.2500000000000004E-002    0.16191415488719940     
   8.2875000000000004E-002    0.15143272280693054     
   8.3250000000000005E-002    0.13709861040115356     
   8.3625000000000005E-002    0.11858988553285599     
   8.4000000000000005E-002     9.5638692378997803E-002
   8.4375000000000006E-002     6.8195812404155731E-002
   8.4750000000000006E-002     3.6612402647733688E-002
   8.5125000000000006E-002     1.7372985603287816E-003
   8.5500000000000007E-002    -3.4967165440320969E-002
   8.5875000000000007E-002    -7.1472711861133575E-002
   8.6250000000000007E-002   -0.10534445941448212     
   8.6625000000000008E-002   -0.13388594985008240     
   8.7000000000000008E-002   -0.15451426804065704     
   8.7375000000000008E-002   -0.16495139896869659     
   8.7750000000000009E-002   -0.16365882754325867     
   8.8125000000000009E-002   -0.15001013875007629     
   8.8500000000000009E-002   -0.12455081194639206     
   8.8875000000000010E-002    -8.8981673121452332E-002
   8.9250000000000010E-002    -4.6153280884027481E-002
   8.9625000000000010E-002     2.0323942590039223E-004
   9.0000000000000011E-002     4.5746687799692154E-002
   9.0375000000000011E-002     8.6065173149108887E-002
   9.0750000000000011E-002    0.11712138354778290     
   9.1125000000000012E-002    0.13570882380008698     
   9.1500000000000012E-002    0.13992911577224731     
   9.1875000000000012E-002    0.12931858003139496     
   9.2250000000000013E-002    0.10516118258237839     
   9.2624999999999999E-002     7.0163853466510773E-002
   9.2999999999999999E-002     2.8254238888621330E-002
   9.3375000000000000E-002    -1.5885757282376289E-002
   9.3750000000000000E-002    -5.7390350848436356E-002
   9.4125000000000000E-002    -9.1708727180957794E-002
   9.4500000000000001E-002   -0.11528462916612625     
   9.4875000000000001E-002   -0.12579680979251862     
   9.5250000000000001E-002   -0.12250838428735733     
   9.5625000000000002E-002   -0.10620491951704025     
   9.6000000000000002E-002    -7.9173840582370758E-002
   9.6375000000000002E-002    -4.4841509312391281E-002
   9.6750000000000003E-002    -7.3723806999623775E-003
   9.7125000000000003E-002     2.8843674808740616E-002
   9.7500000000000003E-002     5.9673212468624115E-002
   9.7875000000000004E-002     8.1606470048427582E-002
   9.8250000000000004E-002     9.2272728681564331E-002
   9.8625000000000004E-002     9.0547271072864532E-002
   9.9000000000000005E-002     7.6787695288658142E-002
   9.9375000000000005E-002     5.2584856748580933E-002
   9.9750000000000005E-002     2.0712004974484444E-002
  0.10012500000000001         -1.5259159728884697E-002
  0.10050000000000001         -5.1376812160015106E-002
  0.10087500000000001         -8.3729408681392670E-002
  0.10125000000000001        -0.10898372530937195     
  0.10162500000000001        -0.12452855706214905     
  0.10200000000000001        -0.12885412573814392     
  0.10237500000000001        -0.12153594940900803     
  0.10275000000000001        -0.10331789404153824     
  0.10312500000000001         -7.5783833861351013E-002
  0.10350000000000001         -4.1221283376216888E-002
  0.10387500000000001         -2.3167689796537161E-003
  0.10425000000000001          3.8031157106161118E-002
  0.10462500000000001          7.6913446187973022E-002
  0.10500000000000001         0.11167073249816895     
  0.10537500000000001         0.13985918462276459     
  0.10575000000000001         0.15939940512180328     
  0.10612500000000001         0.16862429678440094     
  0.10650000000000001         0.16641522943973541     
  0.10687500000000001         0.15235519409179688     
  0.10725000000000001         0.12669360637664795     
  0.10762500000000001          9.0624175965785980E-002
  0.10800000000000001          4.6117212623357773E-002
  0.10837500000000001         -3.9353859610855579E-003
  0.10875000000000001         -5.6063976138830185E-002
  0.10912500000000000        -0.10645894706249237     
  0.10950000000000000        -0.15128651261329651     
  0.10987500000000000        -0.18708121776580811     
  0.11025000000000000        -0.21108846366405487     
  0.11062500000000001        -0.22160397469997406     
  0.11100000000000000        -0.21804291009902954     
  0.11137500000000002        -0.20100538432598114     
  0.11175000000000000        -0.17207483947277069     
  0.11212500000000002        -0.13372357189655304     
  0.11250000000000000         -8.8880598545074463E-002
  0.11287500000000002         -4.0738198906183243E-002
  0.11325000000000000          7.6650623232126236E-003
  0.11362500000000002          5.3450942039489746E-002
  0.11400000000000000          9.4268843531608582E-002
  0.11437500000000002         0.12816098332405090     
  0.11475000000000000         0.15376387536525726     
  0.11512500000000002         0.17022891342639923     
  0.11550000000000001         0.17718502879142761     
  0.11587500000000002         0.17494171857833862     
  0.11625000000000001         0.16434554755687714     
  0.11662500000000002         0.14693149924278259     
  0.11700000000000001         0.12483579665422440     
  0.11737499999999999         0.10074847936630249     
  0.11775000000000001          7.7694796025753021E-002
  0.11812499999999999          5.8801662176847458E-002
  0.11850000000000001          4.6799536794424057E-002
  0.11887499999999999          4.3728251010179520E-002
  0.11925000000000001          5.0500404089689255E-002
  0.11962500000000000          6.6635809838771820E-002
  0.12000000000000001          9.0050816535949707E-002
  0.12037500000000000         0.11729868501424789     
  0.12075000000000001         0.14373528957366943     
  0.12112500000000000         0.16411490738391876     
  0.12150000000000001         0.17320156097412109     
  0.12187500000000000         0.16648016870021820     
  0.12225000000000001         0.14075703918933868     
  0.12262500000000000          9.4835929572582245E-002
  0.12300000000000001          2.9524685814976692E-002
  0.12337500000000000         -5.2081365138292313E-002
  0.12375000000000001        -0.14494724571704865     
  0.12412500000000000        -0.24258215725421906     
  0.12450000000000001        -0.33759379386901855     
  0.12487500000000000        -0.42263820767402649     
  0.12525000000000003        -0.49083948135375977     
  0.12562499999999999        -0.53675711154937744     
  0.12600000000000000        -0.55665385723114014     
  0.12637500000000002        -0.54916805028915405     
  0.12675000000000003        -0.51493519544601440     
  0.12712499999999999        -0.45696485042572021     
  0.12750000000000000        -0.37983781099319458     
  0.12787500000000002        -0.28966268897056580     
  0.12825000000000003        -0.19297850131988525     
  0.12862499999999999         -9.6360370516777039E-002
  0.12900000000000000         -5.5006486363708973E-003
  0.12937500000000002          7.5321882963180542E-002
  0.12975000000000003         0.14345306158065796     
  0.13012499999999999         0.19854636490345001     
  0.13050000000000000         0.24201147258281708     
  0.13087500000000002         0.27693226933479309     
  0.13125000000000003         0.30738604068756104     
  0.13162499999999999         0.33757197856903076     
  0.13200000000000001         0.37130373716354370     
  0.13237500000000002         0.41102832555770874     
  0.13275000000000003         0.45717805624008179     
  0.13312499999999999         0.50814020633697510     
  0.13350000000000001         0.56009477376937866     
  0.13387500000000002         0.60732346773147583     
  0.13424999999999998         0.64319527149200439     
  0.13462499999999999         0.66032594442367554     
  0.13500000000000001         0.65232712030410767     
  0.13537500000000002         0.61413735151290894     
  0.13574999999999998         0.54297751188278198     
  0.13612500000000000         0.43882229924201965     
  0.13650000000000001         0.30453366041183472     
  0.13687500000000002         0.14591634273529053     
  0.13724999999999998         -2.8769355267286301E-002
  0.13762500000000000        -0.20970989763736725     
  0.13800000000000001        -0.38612082600593567     
  0.13837500000000003        -0.54722255468368530     
  0.13874999999999998        -0.68320721387863159     
  0.13912500000000000        -0.78624492883682251     
  0.13950000000000001        -0.85091483592987061     
  0.13987500000000003        -0.87470561265945435     
  0.14024999999999999        -0.85784363746643066     
  0.14062500000000000        -0.80357909202575684     
  0.14100000000000001        -0.71725535392761230     
  0.14137500000000003        -0.60592448711395264     
  0.14174999999999999        -0.47719901800155640     
  0.14212500000000000        -0.33888775110244751     
  0.14250000000000002        -0.19834998250007629     
  0.14287500000000003         -6.1708904802799225E-002
  0.14324999999999999          6.5779097378253937E-002
  0.14362500000000000         0.18028914928436279     
  0.14400000000000002         0.27832970023155212     
  0.14437500000000003         0.35733056068420410     
  0.14474999999999999         0.41497978568077087     
  0.14512500000000000         0.44925460219383240     
  0.14550000000000002         0.45847004652023315     
  0.14587500000000003         0.44170314073562622     
  0.14624999999999999         0.39937078952789307     
  0.14662500000000001         0.33351457118988037     
  0.14700000000000002         0.24800555408000946     
  0.14737500000000003         0.14859436452388763     
  0.14774999999999999          4.3015986680984497E-002
  0.14812500000000001         -6.0152418911457062E-002
  0.14850000000000002        -0.15209342539310455     
  0.14887500000000004        -0.22467201948165894     
  0.14924999999999999        -0.27164408564567566     
  0.14962500000000001        -0.28871986269950867     
  0.15000000000000002        -0.27470624446868896     
  0.15037499999999998        -0.23145143687725067     
  0.15075000000000000        -0.16318513453006744     
  0.15112500000000001         -7.6339952647686005E-002
  0.15150000000000002          2.0994968712329865E-002
  0.15187499999999998         0.12025027722120285     
  0.15225000000000000         0.21249665319919586     
  0.15262500000000001         0.29009458422660828     
  0.15300000000000002         0.34655070304870605     
  0.15337499999999998         0.37706288695335388     
  0.15375000000000000         0.37945893406867981     
  0.15412500000000001         0.35383939743041992     
  0.15450000000000003         0.30299681425094604     
  0.15487499999999998         0.23195923864841461     
  0.15525000000000000         0.14739991724491119     
  0.15562500000000001          5.7444706559181213E-002
  0.15600000000000003         -2.9460482299327850E-002
  0.15637499999999999        -0.10569351166486740     
  0.15675000000000000        -0.16509035229682922     
  0.15712500000000001        -0.20372983813285828     
  0.15750000000000003        -0.22007954120635986     
  0.15787499999999999        -0.21557784080505371     
  0.15825000000000000        -0.19400669634342194     
  0.15862500000000002        -0.16078113019466400     
  0.15900000000000003        -0.12196995317935944     
  0.15937499999999999         -8.3742022514343262E-002
  0.15975000000000000         -5.0943199545145035E-002
  0.16012500000000002         -2.7235081419348717E-002
  0.16050000000000003         -1.3680601492524147E-002
  0.16087499999999999         -9.6673956140875816E-003
  0.16125000000000000         -1.3143470510840416E-002
  0.16162500000000002         -2.0806912332773209E-002
  0.16200000000000003         -2.9330106452107430E-002
  0.16237499999999999         -3.5481475293636322E-002
  0.16275000000000001         -3.7133231759071350E-002
  0.16312500000000002         -3.3476654440164566E-002
  0.16350000000000003         -2.4795424193143845E-002
  0.16387499999999999         -1.2155960313975811E-002
  0.16425000000000001          2.4099508300423622E-003
  0.16462500000000002          1.6984533518552780E-002
  0.16500000000000004          2.9647598043084145E-002
  0.16537499999999999          3.9411235600709915E-002
  0.16575000000000001          4.5754939317703247E-002
  0.16612500000000002          4.8760633915662766E-002
  0.16650000000000004          4.8937030136585236E-002
  0.16687500000000000          4.7132637351751328E-002
  0.16725000000000001          4.3828554451465607E-002
  0.16762500000000002          3.9453934878110886E-002
  0.16799999999999998          3.3759534358978271E-002
  0.16837500000000000          2.6360945776104927E-002
  0.16875000000000001          1.6819218173623085E-002
  0.16912500000000003          4.7044465318322182E-003
  0.16949999999999998         -1.0020310990512371E-002
  0.16987500000000000         -2.6747228577733040E-002
  0.17025000000000001         -4.4160440564155579E-002
  0.17062500000000003         -6.0484882444143295E-002
  0.17099999999999999         -7.3562175035476685E-002
  0.17137500000000000         -8.1417232751846313E-002
  0.17175000000000001         -8.2310155034065247E-002
  0.17212500000000003         -7.5490042567253113E-002
  0.17249999999999999         -6.1115670949220657E-002
  0.17287500000000000         -4.0542084723711014E-002
  0.17325000000000002         -1.6136014834046364E-002
  0.17362500000000003          9.4380760565400124E-003
  0.17399999999999999          3.2840874046087265E-002
  0.17437500000000000          5.1306791603565216E-002
  0.17475000000000002          6.2721751630306244E-002
  0.17512500000000003          6.5831847488880157E-002
  0.17549999999999999          6.0660809278488159E-002
  0.17587500000000000          4.8196893185377121E-002
  0.17625000000000002          3.0169630423188210E-002
  0.17662500000000003          8.9419363066554070E-003
  0.17699999999999999         -1.3118708506226540E-002
  0.17737500000000000         -3.3831261098384857E-002
  0.17775000000000002         -5.1468968391418457E-002
  0.17812500000000003         -6.4732261002063751E-002
  0.17849999999999999         -7.3068000376224518E-002
  0.17887500000000001         -7.6122254133224487E-002
  0.17925000000000002         -7.3959581553936005E-002
  0.17962500000000003         -6.6810630261898041E-002
  0.17999999999999999         -5.4943267256021500E-002
  0.18037500000000001         -3.8713507354259491E-002
  0.18075000000000002         -1.8732560798525810E-002
  0.18112500000000004          4.3000453151762486E-003
  0.18149999999999999          2.9219843447208405E-002
  0.18187500000000001          5.4441586136817932E-002
  0.18225000000000002          7.8071407973766327E-002
  0.18262500000000004          9.7994707524776459E-002
  0.18300000000000000         0.11216798424720764     
  0.18337500000000001         0.11869715899229050     
  0.18375000000000002         0.11655949056148529     
  0.18412499999999998         0.10574152320623398     
  0.18450000000000000          8.7450198829174042E-002
  0.18487500000000001          6.4275875687599182E-002
  0.18525000000000003          4.0145426988601685E-002
  0.18562499999999998          1.9649358466267586E-002
  0.18600000000000000          7.6411743648350239E-003
  0.18637500000000001          8.1875286996364594E-003
  0.18675000000000003          2.3244936019182205E-002
  0.18712499999999999          5.2314560860395432E-002
  0.18750000000000000          9.0998500585556030E-002
  0.18787500000000001         0.13181552290916443     
  0.18825000000000003         0.16407003998756409     
  0.18862499999999999         0.17606413364410400     
  0.18900000000000000         0.15716096758842468     