  -1.4999999999999999E-002     0.0000000000000000     
  -1.4624999999999999E-002     0.0000000000000000     
  -1.4249999999999999E-002     0.0000000000000000     
  -1.3874999999999998E-002     0.0000000000000000     
  -1.3500000000000000E-002     0.0000000000000000     
  -1.3125000000000000E-002     0.0000000000000000     
  -1.2749999999999999E-002     0.0000000000000000     
  -1.2374999999999999E-002     0.0000000000000000     
  -1.2000000000000000E-002     0.0000000000000000     
  -1.1625000000000000E-002     0.0000000000000000     
  -1.1250000000000000E-002     0.0000000000000000     
  -1.0874999999999999E-002     0.0000000000000000     
  -1.0499999999999999E-002     0.0000000000000000     
  -1.0124999999999999E-002     0.0000000000000000     
  -9.7499999999999983E-003     0.0000000000000000     
  -9.3749999999999979E-003     0.0000000000000000     
  -8.9999999999999993E-003     0.0000000000000000     
  -8.6249999999999990E-003     0.0000000000000000     
  -8.2500000000000004E-003     0.0000000000000000     
  -7.8750000000000001E-003     0.0000000000000000     
  -7.4999999999999989E-003     0.0000000000000000     
  -7.1249999999999994E-003     0.0000000000000000     
  -6.7499999999999991E-003     0.0000000000000000     
  -6.3749999999999987E-003     0.0000000000000000     
  -5.9999999999999984E-003     0.0000000000000000     
  -5.6249999999999998E-003     0.0000000000000000     
  -5.2499999999999995E-003     0.0000000000000000     
  -4.8749999999999991E-003     0.0000000000000000     
  -4.4999999999999988E-003     0.0000000000000000     
  -4.1249999999999985E-003     0.0000000000000000     
  -3.7499999999999981E-003     0.0000000000000000     
  -3.3749999999999995E-003     0.0000000000000000     
  -2.9999999999999992E-003     0.0000000000000000     
  -2.6249999999999989E-003     0.0000000000000000     
  -2.2499999999999985E-003     0.0000000000000000     
  -1.8749999999999982E-003     0.0000000000000000     
  -1.4999999999999996E-003     0.0000000000000000     
  -1.1249999999999993E-003     0.0000000000000000     
  -7.4999999999999893E-004     0.0000000000000000     
  -3.7499999999999860E-004     0.0000000000000000     
   1.7347234759768071E-018     0.0000000000000000     
   3.7500000000000207E-004     0.0000000000000000     
   7.5000000000000067E-004     0.0000000000000000     
   1.1250000000000010E-003     0.0000000000000000     
   1.5000000000000013E-003     0.0000000000000000     
   1.8750000000000017E-003     0.0000000000000000     
   2.2500000000000020E-003     0.0000000000000000     
   2.6250000000000023E-003     0.0000000000000000     
   3.0000000000000027E-003     0.0000000000000000     
   3.3750000000000030E-003     0.0000000000000000     
   3.7499999999999999E-003     0.0000000000000000     
   4.1250000000000002E-003     0.0000000000000000     
   4.5000000000000005E-003     0.0000000000000000     
   4.8750000000000009E-003     0.0000000000000000     
   5.2500000000000012E-003     0.0000000000000000     
   5.6250000000000015E-003     0.0000000000000000     
   6.0000000000000019E-003     0.0000000000000000     
   6.3750000000000022E-003     0.0000000000000000     
   6.7500000000000025E-003     0.0000000000000000     
   7.1250000000000029E-003     0.0000000000000000     
   7.5000000000000032E-003     0.0000000000000000     
   7.8750000000000001E-003     0.0000000000000000     
   8.2500000000000004E-003     0.0000000000000000     
   8.6250000000000007E-003     1.2152746475145185E-051
   9.0000000000000011E-003    -1.4001682767692945E-038
   9.3750000000000014E-003    -3.4657679421893750E-037
   9.7500000000000017E-003    -6.9331412214083789E-035
   1.0125000000000002E-002    -1.0393188838542969E-033
   1.0500000000000002E-002    -1.3303861711054938E-032
   1.0875000000000003E-002    -4.8461017674058427E-032
   1.1250000000000003E-002     5.2760242810431953E-031
   1.1625000000000003E-002     2.5615464355872355E-030
   1.2000000000000000E-002    -2.1084656775105373E-029
   1.2375000000000001E-002    -1.2264351743803127E-029
   1.2750000000000001E-002     5.7997934427567076E-028
   1.3125000000000001E-002    -2.8779193392528165E-027
   1.3500000000000002E-002     7.2830746852977127E-027
   1.3875000000000002E-002    -8.1795210751504200E-027
   1.4250000000000002E-002    -2.1546704455156782E-026
   1.4625000000000003E-002     1.9788932753711564E-025
   1.5000000000000003E-002     4.5362884909030981E-024
   1.5375000000000003E-002     1.4299486191341549E-023
   1.5750000000000004E-002     5.6859238713817971E-023
   1.6125000000000000E-002     2.1302490530173183E-022
   1.6500000000000001E-002     7.9698236482190242E-022
   1.6875000000000001E-002     2.9196855359042250E-021
   1.7250000000000001E-002     1.0504439783859676E-020
   1.7625000000000002E-002     3.7107884207532750E-020
   1.8000000000000002E-002     1.2870261599578212E-019
   1.8375000000000002E-002     4.3827086180582477E-019
   1.8750000000000003E-002     1.4652684088692662E-018
   1.9125000000000003E-002     4.8095844146254639E-018
   1.9500000000000003E-002     1.5498968823778435E-017
   1.9875000000000004E-002     4.9034266596909682E-017
   2.0250000000000004E-002     1.5229383589934551E-016
   2.0625000000000004E-002     4.6435014984049234E-016
   2.1000000000000005E-002     1.3898840815392797E-015
   2.1375000000000005E-002     4.0838450007287170E-015
   2.1750000000000005E-002     1.1779013772194370E-014
   2.2125000000000006E-002     3.3349062490120552E-014
   2.2499999999999999E-002     9.2679052764992444E-014
   2.2875000000000000E-002     2.5280647071527046E-013
   2.3250000000000000E-002     6.7685081377339200E-013
   2.3625000000000000E-002     1.7785847816600082E-012
   2.4000000000000000E-002     4.5869476602753226E-012
   2.4375000000000001E-002     1.1609700944332533E-011
   2.4750000000000001E-002     2.8836745380166344E-011
   2.5125000000000001E-002     7.0288349785656696E-011
   2.5500000000000002E-002     1.6811585120233463E-010
   2.5875000000000002E-002     3.9455177745532129E-010
   2.6250000000000002E-002     9.0853346856424432E-010
   2.6625000000000003E-002     2.0525780751771343E-009
   2.7000000000000003E-002     4.5493136888772512E-009
   2.7375000000000003E-002     9.8914517261747697E-009
   2.7750000000000004E-002     2.1096074526682221E-008
   2.8125000000000004E-002     4.4130640935987472E-008
   2.8500000000000004E-002     9.0539754976300521E-008
   2.8875000000000005E-002     1.8216300078292803E-007
   2.9250000000000005E-002     3.5938090055790488E-007
   2.9625000000000005E-002     6.9514915710847531E-007
   3.0000000000000006E-002     1.3182029288076141E-006
   3.0375000000000006E-002     2.4502039365698433E-006
   3.0750000000000000E-002     4.4635615830997229E-006
   3.1125000000000000E-002     7.9680012910650542E-006
   3.1500000000000000E-002     1.3935660957616050E-005
   3.1875000000000001E-002     2.3874573684237832E-005
   3.2250000000000001E-002     4.0056167918716371E-005
   3.2625000000000001E-002     6.5801114198351177E-005
   3.3000000000000002E-002     1.0580350791877697E-004
   3.3375000000000002E-002     1.6647059530379676E-004
   3.3750000000000002E-002     2.5620238914518154E-004
   3.4125000000000003E-002     3.8553954765881983E-004
   3.4500000000000003E-002     5.6699988595605168E-004
   3.4875000000000003E-002     8.1449867575335375E-004
   3.5250000000000004E-002     1.1420834989926318E-003
   3.5625000000000004E-002     1.5619907128638683E-003
   3.6000000000000004E-002     2.0817534459811804E-003
   3.6375000000000005E-002     2.7005032210680856E-003
   3.6750000000000005E-002     3.4050633105164449E-003
   3.7125000000000005E-002     4.1657087635449605E-003
   3.7500000000000006E-002     4.9330475039951636E-003
   3.7875000000000006E-002     5.6372726790897354E-003
   3.8250000000000006E-002     6.1898109481986069E-003
   3.8625000000000007E-002     6.4890909595641498E-003
   3.9000000000000000E-002     6.4327508979405996E-003
   3.9375000000000000E-002     5.9291313357804545E-003
   3.9750000000000001E-002     4.9208627186806825E-003
   4.0125000000000001E-002     3.3954612639267145E-003
   4.0500000000000001E-002     1.4068497390599794E-003
   4.0875000000000002E-002    -9.1912739014259255E-004
   4.1250000000000002E-002    -3.3893135829625018E-003
   4.1625000000000002E-002    -5.7581265887223865E-003
   4.2000000000000003E-002    -7.7558869086589155E-003
   4.2375000000000003E-002    -9.1386792196451686E-003
   4.2750000000000003E-002    -9.7272356139340432E-003
   4.3125000000000004E-002    -9.4618515659078226E-003
   4.3500000000000004E-002    -8.4379515016688410E-003
   4.3875000000000004E-002    -6.9141688884183546E-003
   4.4250000000000005E-002    -5.3156900859628858E-003
   4.4625000000000005E-002    -4.1715816328005591E-003
   4.5000000000000005E-002    -4.0731642299889253E-003
   4.5375000000000006E-002    -5.5528807579940933E-003
   4.5750000000000006E-002    -9.0148250565099675E-003
   4.6125000000000006E-002    -1.4636396621611911E-002
   4.6500000000000007E-002    -2.2297281620824116E-002
   4.6875000000000007E-002    -3.1577631568946996E-002
   4.7250000000000000E-002    -4.1750890755779743E-002
   4.7625000000000001E-002    -5.1872936861270771E-002
   4.8000000000000001E-002    -6.0862104660902194E-002
   4.8375000000000001E-002    -6.7644903382582139E-002
   4.8750000000000002E-002    -7.1256291632281796E-002
   4.9125000000000002E-002    -7.0992276781414065E-002
   4.9500000000000002E-002    -6.6441605518848479E-002
   4.9875000000000003E-002    -5.7571795538766346E-002
   5.0250000000000003E-002    -4.4692448681805608E-002
   5.0625000000000003E-002    -2.8405538274507862E-002
   5.1000000000000004E-002    -9.5468379854741735E-003
   5.1375000000000004E-002     1.0955490779912778E-002
   5.1750000000000004E-002     3.2146356186485328E-002
   5.2125000000000005E-002     5.3153698804103908E-002
   5.2500000000000005E-002     7.3240833240506328E-002
   5.2875000000000005E-002     9.1845449691603520E-002
   5.3250000000000006E-002    0.10854276510499235     
   5.3625000000000006E-002    0.12306196807594802     
   5.4000000000000006E-002    0.13518917803702934     
   5.4375000000000007E-002    0.14471899344821035     
   5.4750000000000007E-002    0.15142841989356992     
   5.5125000000000007E-002    0.15499849719903885     
   5.5500000000000008E-002    0.15507445732226233     
   5.5875000000000008E-002    0.15122201499939100     
   5.6250000000000008E-002    0.14305097689373919     
   5.6625000000000009E-002    0.13025284879173105     
   5.7000000000000009E-002    0.11269959210432870     
   5.7375000000000009E-002     9.0533774377010157E-002
   5.7750000000000010E-002     6.4197973259757152E-002
   5.8125000000000010E-002     3.4472476480145113E-002
   5.8500000000000010E-002     2.4561596123045424E-003
   5.8875000000000011E-002    -3.0524898574553046E-002
   5.9250000000000011E-002    -6.3007948547813275E-002
   5.9624999999999997E-002    -9.3488869706356781E-002
   5.9999999999999998E-002   -0.12060901638745486     
   6.0374999999999998E-002   -0.14321491599410452     
   6.0749999999999998E-002   -0.16045741048577383     
   6.1124999999999999E-002   -0.17185468191632108     
   6.1499999999999999E-002   -0.17725300157475687     
   6.1874999999999999E-002   -0.17682105668834247     
   6.2250000000000000E-002   -0.17095037567985327     
   6.2625000000000000E-002   -0.16023081678153969     
   6.3000000000000000E-002   -0.14526629081763992     
   6.3375000000000001E-002   -0.12674630761510225     
   6.3750000000000001E-002   -0.10529930729941457     
   6.4125000000000001E-002    -8.1523318884188845E-002
   6.4500000000000002E-002    -5.6033301158249088E-002
   6.4875000000000002E-002    -2.9435230036184111E-002
   6.5250000000000002E-002    -2.4305718086949759E-003
   6.5625000000000003E-002     2.4165454267273075E-002
   6.6000000000000003E-002     4.9418860703840634E-002
   6.6375000000000003E-002     7.2235929063490939E-002
   6.6750000000000004E-002     9.1426268659966045E-002
   6.7125000000000004E-002    0.10577703959886849     
   6.7500000000000004E-002    0.11411177511996407     
   6.7875000000000005E-002    0.11546634665887512     
   6.8250000000000005E-002    0.10917549511171332     
   6.8625000000000005E-002     9.4977003011387451E-002
   6.9000000000000006E-002     7.3197121420130573E-002
   6.9375000000000006E-002     4.4676668798010896E-002
   6.9750000000000006E-002     1.0937524122728028E-002
   7.0125000000000007E-002    -2.5991745533197580E-002
   7.0500000000000007E-002    -6.3623061993534416E-002
   7.0875000000000007E-002    -9.9135827577766233E-002
   7.1250000000000008E-002   -0.12968581914078472     
   7.1625000000000008E-002   -0.15255565737701238     
   7.2000000000000008E-002   -0.16548738618327086     
   7.2375000000000009E-002   -0.16690667134670012     
   7.2750000000000009E-002   -0.15612816808315869     
   7.3125000000000009E-002   -0.13349278452235042     
   7.3500000000000010E-002   -0.10045498181588022     
   7.3875000000000010E-002    -5.9400719718239764E-002
   7.4250000000000010E-002    -1.3556531919252504E-002
   7.4625000000000011E-002     3.3381872302024503E-002
   7.5000000000000011E-002     7.7628937732122275E-002
   7.5375000000000011E-002    0.11568733690889327     
   7.5750000000000012E-002    0.14478589707598258     
   7.6124999999999998E-002    0.16313920559011366     
   7.6499999999999999E-002    0.17017329969993744     
   7.6874999999999999E-002    0.16647100674481508     
   7.7249999999999999E-002    0.15374012639812279     
   7.7625000000000000E-002    0.13440436442143125     
   7.8000000000000000E-002    0.11129839294818336     
   7.8375000000000000E-002     8.7262131363201961E-002
   7.8750000000000001E-002     6.4681706198537248E-002
   7.9125000000000001E-002     4.5312023572455944E-002
   7.9500000000000001E-002     3.0005358603253471E-002
   7.9875000000000002E-002     1.8809794609769438E-002
   8.0250000000000002E-002     1.1036699780979787E-002
   8.0625000000000002E-002     5.5700527038273027E-003
   8.1000000000000003E-002     1.1237160368766752E-003
   8.1375000000000003E-002    -3.4143033377778409E-003
   8.1750000000000003E-002    -8.7539762948691847E-003
   8.2125000000000004E-002    -1.5008333667251683E-002
   8.2500000000000004E-002    -2.1729540671413507E-002
   8.2875000000000004E-002    -2.7948245728258297E-002
   8.3250000000000005E-002    -3.2419193120154441E-002
   8.3625000000000005E-002    -3.3899047353814049E-002
   8.4000000000000005E-002    -3.1405374768455500E-002
   8.4375000000000006E-002    -2.4589932944099228E-002
   8.4750000000000006E-002    -1.3794760529154040E-002
   8.5125000000000006E-002    -2.2106082127446979E-004
   8.5500000000000007E-002     1.4206578767222637E-002
   8.5875000000000007E-002     2.7111601205157501E-002
   8.6250000000000007E-002     3.5902524586489050E-002
   8.6625000000000008E-002     3.8370157673262337E-002
   8.7000000000000008E-002     3.2964009119910674E-002
   8.7375000000000008E-002     1.9231449316152900E-002
   8.7750000000000009E-002    -1.9952774726604621E-003
   8.8125000000000009E-002    -2.8602843489572666E-002
   8.8500000000000009E-002    -5.7341344137254863E-002
   8.8875000000000010E-002    -8.4315977952624965E-002
   8.9250000000000010E-002   -0.10543408395100959     
   8.9625000000000010E-002   -0.11710495470471241     
   9.0000000000000011E-002   -0.11671289401865201     
   9.0375000000000011E-002   -0.10317853966891491     
   9.0750000000000011E-002    -7.7049489479436059E-002
   9.1125000000000012E-002    -4.0661640737622996E-002
   9.1500000000000012E-002     2.2642943071210647E-003
   9.1875000000000012E-002     4.7076037785837480E-002
   9.2250000000000013E-002     8.8626030685805948E-002
   9.2624999999999999E-002    0.12222310348770082     
   9.2999999999999999E-002    0.14387888848753344     
   9.3375000000000000E-002    0.15114423514873110     
   9.3750000000000000E-002    0.14302509265892299     
   9.4125000000000000E-002    0.12034006256912511     
   9.4500000000000001E-002     8.5380653767469145E-002
   9.4875000000000001E-002     4.1624300069393487E-002
   9.5250000000000001E-002    -6.6284001419508153E-003
   9.5625000000000002E-002    -5.4959616349319500E-002
   9.6000000000000002E-002    -9.9053450063062570E-002
   9.6375000000000002E-002   -0.13538213652716125     
   9.6750000000000003E-002   -0.16120679033929725     
   9.7125000000000003E-002   -0.17498968471246346     
   9.7500000000000003E-002   -0.17621901193490869     
   9.7875000000000004E-002   -0.16541333434318761     
   9.8250000000000004E-002   -0.14397426093762827     
   9.8625000000000004E-002   -0.11391172805560540     
   9.9000000000000005E-002    -7.7929563171756325E-002
   9.9375000000000005E-002    -3.8878660519928943E-002
   9.9750000000000005E-002    -5.7527075935914600E-005
  0.10012500000000001          3.5273642857396204E-002
  0.10050000000000001          6.3891681863959798E-002
  0.10087500000000001          8.2837464087044455E-002
  0.10125000000000001          8.9878110722886401E-002
  0.10162500000000001          8.3604043772602082E-002
  0.10200000000000001          6.3939173745509739E-002
  0.10237500000000001          3.2286686278823910E-002
  0.10275000000000001         -8.3272753230923362E-003
  0.10312500000000001         -5.3418571158893674E-002
  0.10350000000000001         -9.7348488381325454E-002
  0.10387500000000001        -0.13389956194189953     
  0.10425000000000001        -0.15709568888764430     
  0.10462500000000001        -0.16175470157208868     
  0.10500000000000001        -0.14455920036807346     
  0.10537500000000001        -0.10425759052934833     
  0.10575000000000001         -4.2220804632314514E-002
  0.10612500000000001          3.7778695781638026E-002
  0.10650000000000001         0.12978729320404148     
  0.10687500000000001         0.22637788012315757     
  0.10725000000000001         0.31938724188887291     
  0.10762500000000001         0.40078259332035782     
  0.10800000000000001         0.46352003091103233     
  0.10837500000000001         0.50214907416765986     
  0.10875000000000001         0.51334469869754040     
  0.10912500000000000         0.49603565730713561     
  0.10950000000000000         0.45152211997828118     
  0.10987500000000000         0.38296996643865022     
  0.11025000000000000         0.29517738643520036     
  0.11062500000000001         0.19395373873039637     
  0.11100000000000000          8.5337278780136708E-002
  0.11137500000000002         -2.4742016091803726E-002
  0.11175000000000000        -0.13118301025207879     
  0.11212500000000002        -0.23001645487075367     
  0.11250000000000000        -0.31855802372414627     
  0.11287500000000002        -0.39551204674042839     
  0.11325000000000000        -0.46071729209944368     
  0.11362500000000002        -0.51486122571586534     
  0.11400000000000000        -0.55905274465564259     
  0.11437500000000002        -0.59442484052478184     
  0.11475000000000000        -0.62162462205877900     
  0.11512500000000002        -0.64061106749422225     
  0.11550000000000001        -0.65048431696654407     
  0.11587500000000002        -0.64934656102682076     
  0.11625000000000001        -0.63479592905022908     
  0.11662500000000002        -0.60380598199373392     
  0.11700000000000001        -0.55358428781173619     
  0.11737499999999999        -0.48168121735964808     
  0.11775000000000001        -0.38660641033804799     
  0.11812499999999999        -0.26812599692097744     
  0.11850000000000001        -0.12742287880197539     
  0.11887499999999999          3.2610679683279728E-002
  0.11925000000000001         0.20765816374593432     
  0.11962500000000000         0.39182756367714267     
  0.12000000000000001         0.57807605843966736     
  0.12037500000000000         0.75830651010968120     
  0.12075000000000001         0.92359347552194393     
  0.12112500000000000          1.0647419612396154     
  0.12150000000000001          1.1723582179972207     
  0.12187500000000000          1.2375758382652136     
  0.12225000000000001          1.2524161161309442     
  0.12262500000000000          1.2107421630371689     
  0.12300000000000001          1.1088109227962670     
  0.12337500000000000         0.94636261257862309     
  0.12375000000000001         0.72708410262871193     
  0.12412500000000000         0.45919151598208519     
  0.12450000000000001         0.15565239824467764     
  0.12487500000000000        -0.16642897572285326     
  0.12525000000000003        -0.48640297268203703     
  0.12562499999999999        -0.78180173850994983     
  0.12600000000000000         -1.0301239266754487     
  0.12637500000000002         -1.2108118285307814     
  0.12675000000000003         -1.3077669633658473     
  0.12712499999999999         -1.3110995090728439     
  0.12750000000000000         -1.2187065199994565     
  0.12787500000000002         -1.0369330663206568     
  0.12825000000000003        -0.78060922649904230     
  0.12862499999999999        -0.47184044928140789     
  0.12900000000000000        -0.13818401754197840     
  0.12937500000000002         0.19009906648521149     
  0.12975000000000003         0.48309520302372533     
  0.13012499999999999         0.71430479953860759     
  0.13050000000000000         0.86352320045247544     
  0.13087500000000002         0.91888815214656216     
  0.13125000000000003         0.87845031126520357     
  0.13162499999999999         0.74975780738623432     
  0.13200000000000001         0.54922560627281847     
  0.13237500000000002         0.30007758108903287     
  0.13275000000000003          2.9386745227646116E-002
  0.13312499999999999        -0.23482961246492517     
  0.13350000000000001        -0.46692774744703902     
  0.13387500000000002        -0.64630447103545152     
  0.13424999999999998        -0.75931722166419702     
  0.13462499999999999        -0.80023427788369283     
  0.13500000000000001        -0.77138420750533243     
  0.13537500000000002        -0.68201619269492653     
  0.13574999999999998        -0.54635462580106098     
  0.13612500000000000        -0.38171678974860718     
  0.13650000000000001        -0.20581806164189537     
  0.13687500000000002         -3.4873090718471375E-002
  0.13724999999999998         0.11807557477774565     
  0.13762500000000000         0.24419385211243044     
  0.13800000000000001         0.33889928456881985     
  0.13837500000000003         0.40159280905946532     
  0.13874999999999998         0.43451785554578465     
  0.13912500000000000         0.44191789609646354     
  0.13950000000000001         0.42873144095799198     
  0.13987500000000003         0.39960364976077012     
  0.14024999999999999         0.35837930176265381     
  0.14062500000000000         0.30813034180871873     
  0.14100000000000001         0.25093234523480323     
  0.14137500000000003         0.18861070884546224     
  0.14174999999999999         0.12319828372584890     
  0.14212500000000000          5.6992745307361634E-002
  0.14250000000000002         -6.6205555608304500E-003
  0.14287500000000003         -6.3930306631280479E-002
  0.14324999999999999        -0.11093217619684738     
  0.14362500000000000        -0.14397162798033275     
  0.14400000000000002        -0.16034755404707679     
  0.14437500000000003        -0.15896835836613893     
  0.14474999999999999        -0.14066497051065130     
  0.14512500000000000        -0.10827827554572478     
  0.14550000000000002         -6.6251056514691362E-002
  0.14587500000000003         -2.0140558575059753E-002
  0.14624999999999999          2.4210122565236504E-002
  0.14662500000000001          6.1407214766436707E-002
  0.14700000000000002          8.7476272606744204E-002
  0.14737500000000003         0.10020593956988828     
  0.14774999999999999          9.9443487906170733E-002
  0.14812500000000001          8.6845369741592099E-002
  0.14850000000000002          6.5577275930798068E-002
  0.14887500000000004          3.9521455531207381E-002
  0.14924999999999999          1.2802411177630674E-002
  0.14962500000000001         -1.1196757688571916E-002
  0.15000000000000002         -3.0103077192635760E-002
  0.15037499999999998         -4.2734269144074993E-002
  0.15075000000000000         -4.9255312526446285E-002
  0.15112500000000001         -5.0629295448865047E-002
  0.15150000000000002         -4.8668413109770360E-002
  0.15187499999999998         -4.5037960516132916E-002
  0.15225000000000000         -4.1416011953975082E-002
  0.15262500000000001         -3.8765688583682949E-002
  0.15300000000000002         -3.7643808462356654E-002
  0.15337499999999998         -3.8068747033548608E-002
  0.15375000000000000         -3.9548648183099118E-002
  0.15412500000000001         -4.1546389925498285E-002
  0.15450000000000003         -4.3588901482936010E-002
  0.15487499999999998         -4.5259403025957642E-002
  0.15525000000000000         -4.6416536898393757E-002
  0.15562500000000001         -4.6979616669130461E-002
  0.15600000000000003         -4.6944384564491778E-002
  0.15637499999999999         -4.6315475950990240E-002
  0.15675000000000000         -4.4718187607864723E-002
  0.15712500000000001         -4.1805515216706307E-002
  0.15750000000000003         -3.6846398082331283E-002
  0.15787499999999999         -2.9270257629916765E-002
  0.15825000000000000         -1.8767348960231661E-002
  0.15862500000000002         -5.2637855580368103E-003
  0.15900000000000003          1.0531202254121514E-002
  0.15937499999999999          2.7125440137189517E-002
  0.15975000000000000          4.2369490373103863E-002
  0.16012500000000002          5.3594692438544367E-002
  0.16050000000000003          5.8030623193495751E-002
  0.16087499999999999          5.3538330302311740E-002
  0.16125000000000000          3.9046684041636213E-002
  0.16162500000000002          1.5456972292013337E-002
  0.16200000000000003         -1.4079278773433339E-002
  0.16237499999999999         -4.4250946302718086E-002
  0.16275000000000001         -6.8028849480795600E-002
  0.16312500000000002         -7.7970635066231281E-002
  0.16350000000000003         -6.7593681663318611E-002
  0.16387499999999999         -3.3627352760685549E-002
  0.16425000000000001          2.2705726058822533E-002
  0.16462500000000002          9.4594778985076164E-002
  0.16500000000000004         0.16947036837161206     
  0.16537499999999999         0.23083252626335274     
  0.16575000000000001         0.26047279926720801     
  0.16612500000000002         0.24249615189328821     
  0.16650000000000004         0.16709592716617339     
  0.16687500000000000          3.4043827619330808E-002
  0.16725000000000001        -0.14516862615175535     
  0.16762500000000002        -0.34748443218844205     
  0.16799999999999998        -0.54059887734179068     
  0.16837500000000000        -0.68747022541625058     
  0.16875000000000001        -0.75298933603430818     
  0.16912500000000003        -0.71016915501520039     
  0.16949999999999998        -0.54660579926964070     
  0.16987500000000000        -0.26821777461924556     
  0.17025000000000001          9.9841497064653395E-002
  0.17062500000000003         0.51511121744264510     
  0.17099999999999999         0.92344577778348935     
  0.17137500000000000          1.2666770241208374     
  0.17175000000000001          1.4911337732742300     
  0.17212500000000003          1.5559880924639429     
  0.17249999999999999          1.4399475408557818     
  0.17287500000000000          1.1445631744852776     
  0.17325000000000002         0.69496169986243572     
  0.17362500000000003         0.13670612976216401     
  0.17399999999999999        -0.47025041100900772     
  0.17437500000000000         -1.0588241581630893     
  0.17475000000000002         -1.5633768398495005     
  0.17512500000000003         -1.9275813448286652     
  0.17549999999999999         -2.1106813820646462     
  0.17587500000000000         -2.0918841747481216     
  0.17625000000000002         -1.8718366790466154     
  0.17662500000000003         -1.4716633543771733     
  0.17699999999999999        -0.93020786372871633     
  0.17737500000000000        -0.29871510136020718     
  0.17775000000000002         0.36470516896877259     
  0.17812500000000003          1.0008433893222533     
  0.17849999999999999          1.5555343965816542     
  0.17887500000000001          1.9838700954764681     
  0.17925000000000002          2.2536245087725186     
  0.17962500000000003          2.3473227341287615     
  0.17999999999999999          2.2624653128923229     
  0.18037500000000001          2.0106132103705385     
  0.18075000000000002          1.6153657452257666     
  0.18112500000000004          1.1098222566004321     
  0.18149999999999999         0.53303312653062207     
  0.18187500000000001         -7.2982155444022589E-002
  0.18225000000000002        -0.66674258953812160     
  0.18262500000000004         -1.2097933545991266     
  0.18300000000000000         -1.6693795142056049     
  0.18337500000000001         -2.0198607924725196     
  0.18375000000000002         -2.2440536116400596     
  0.18412499999999998         -2.3334736571792392     
  0.18450000000000000         -2.2881817199772478     
  0.18487500000000001         -2.1162738780098316     
  0.18525000000000003         -1.8324478055198830     
  0.18562499999999998         -1.4571229270177124     
  0.18600000000000000         -1.0142695568520372     
  0.18637500000000001        -0.53030985260348940     
  0.18675000000000003         -3.2379359284203796E-002
  0.18712499999999999         0.45353785736433633     
  0.18750000000000000         0.90313903311236798     
  0.18787500000000001          1.2956534894036409     
  0.18825000000000003          1.6143499094591225     
  0.18862499999999999          1.8468307724919342     
  0.18900000000000000          1.9859218288124501     