  -1.4999999999999999E-002     0.0000000000000000     
  -1.4624999999999999E-002     0.0000000000000000     
  -1.4249999999999999E-002     0.0000000000000000     
  -1.3874999999999998E-002     0.0000000000000000     
  -1.3500000000000000E-002     0.0000000000000000     
  -1.3125000000000000E-002     0.0000000000000000     
  -1.2749999999999999E-002     0.0000000000000000     
  -1.2374999999999999E-002     0.0000000000000000     
  -1.2000000000000000E-002     0.0000000000000000     
  -1.1625000000000000E-002     0.0000000000000000     
  -1.1250000000000000E-002     0.0000000000000000     
  -1.0874999999999999E-002     0.0000000000000000     
  -1.0499999999999999E-002     0.0000000000000000     
  -1.0124999999999999E-002     0.0000000000000000     
  -9.7499999999999983E-003     0.0000000000000000     
  -9.3749999999999979E-003     0.0000000000000000     
  -8.9999999999999993E-003     0.0000000000000000     
  -8.6249999999999990E-003     0.0000000000000000     
  -8.2500000000000004E-003     0.0000000000000000     
  -7.8750000000000001E-003     0.0000000000000000     
  -7.4999999999999989E-003     0.0000000000000000     
  -7.1249999999999994E-003     0.0000000000000000     
  -6.7499999999999991E-003     0.0000000000000000     
  -6.3749999999999987E-003     0.0000000000000000     
  -5.9999999999999984E-003     0.0000000000000000     
  -5.6249999999999998E-003     0.0000000000000000     
  -5.2499999999999995E-003     0.0000000000000000     
  -4.8749999999999991E-003     0.0000000000000000     
  -4.4999999999999988E-003     0.0000000000000000     
  -4.1249999999999985E-003     0.0000000000000000     
  -3.7499999999999981E-003     0.0000000000000000     
  -3.3749999999999995E-003     0.0000000000000000     
  -2.9999999999999992E-003     0.0000000000000000     
  -2.6249999999999989E-003     0.0000000000000000     
  -2.2499999999999985E-003     0.0000000000000000     
  -1.8749999999999982E-003     0.0000000000000000     
  -1.4999999999999996E-003     0.0000000000000000     
  -1.1249999999999993E-003     0.0000000000000000     
  -7.4999999999999893E-004     0.0000000000000000     
  -3.7499999999999860E-004     0.0000000000000000     
   1.7347234759768071E-018     0.0000000000000000     
   3.7500000000000207E-004     0.0000000000000000     
   7.5000000000000067E-004     0.0000000000000000     
   1.1250000000000010E-003     0.0000000000000000     
   1.5000000000000013E-003     0.0000000000000000     
   1.8750000000000017E-003     0.0000000000000000     
   2.2500000000000020E-003     0.0000000000000000     
   2.6250000000000023E-003     0.0000000000000000     
   3.0000000000000027E-003     0.0000000000000000     
   3.3750000000000030E-003     0.0000000000000000     
   3.7499999999999999E-003     0.0000000000000000     
   4.1250000000000002E-003     0.0000000000000000     
   4.5000000000000005E-003     0.0000000000000000     
   4.8750000000000009E-003     0.0000000000000000     
   5.2500000000000012E-003     0.0000000000000000     
   5.6250000000000015E-003     0.0000000000000000     
   6.0000000000000019E-003     0.0000000000000000     
   6.3750000000000022E-003     0.0000000000000000     
   6.7500000000000025E-003     0.0000000000000000     
   7.1250000000000029E-003     0.0000000000000000     
   7.5000000000000032E-003     0.0000000000000000     
   7.8750000000000001E-003     0.0000000000000000     
   8.2500000000000004E-003     0.0000000000000000     
   8.6250000000000007E-003     0.0000000000000000     
   9.0000000000000011E-003     0.0000000000000000     
   9.3750000000000014E-003     0.0000000000000000     
   9.7500000000000017E-003     0.0000000000000000     
   1.0125000000000002E-002     0.0000000000000000     
   1.0500000000000002E-002     0.0000000000000000     
   1.0875000000000003E-002     0.0000000000000000     
   1.1250000000000003E-002     0.0000000000000000     
   1.1625000000000003E-002     0.0000000000000000     
   1.2000000000000000E-002     0.0000000000000000     
   1.2375000000000001E-002     0.0000000000000000     
   1.2750000000000001E-002     0.0000000000000000     
   1.3125000000000001E-002     0.0000000000000000     
   1.3500000000000002E-002     2.1345269674391962E-052
   1.3875000000000002E-002    -6.0723561664472207E-050
   1.4250000000000002E-002    -8.8642172431032597E-037
   1.4625000000000003E-002     8.4393702797016523E-035
   1.5000000000000003E-002     8.7622483627628201E-034
   1.5375000000000003E-002     6.3483536768538243E-033
   1.5750000000000004E-002    -7.5233067158071251E-032
   1.6125000000000000E-002    -4.7767245849010412E-031
   1.6500000000000001E-002     2.9844490226541303E-030
   1.6875000000000001E-002     9.4667242981222186E-030
   1.7250000000000001E-002    -1.2006991051088485E-028
   1.7625000000000002E-002     3.7768078325111734E-028
   1.8000000000000002E-002     1.9456154605026088E-028
   1.8375000000000002E-002    -7.4116836170854156E-027
   1.8750000000000003E-002     4.0785156229094889E-026
   1.9125000000000003E-002    -1.6662142891954027E-025
   1.9500000000000003E-002     8.8821506596193030E-025
   1.9875000000000004E-002     4.2555135192677937E-024
   2.0250000000000004E-002     1.5618347653069859E-023
   2.0625000000000004E-002     5.9368368503452776E-023
   2.1000000000000005E-002     2.2447408243750735E-022
   2.1375000000000005E-002     8.3317836318755061E-022
   2.1750000000000005E-002     3.0364420877301515E-021
   2.2125000000000006E-002     1.0864596673197986E-020
   2.2499999999999999E-002     3.8169322495783894E-020
   2.2875000000000000E-002     1.3166047308336997E-019
   2.3250000000000000E-002     4.4588732961812064E-019
   2.3625000000000000E-002     1.4825866759324266E-018
   2.4000000000000000E-002     4.8398669837677500E-018
   2.4375000000000001E-002     1.5511470445503987E-017
   2.4750000000000001E-002     4.8806169752886885E-017
   2.5125000000000001E-002     1.5076033753109529E-016
   2.5500000000000002E-002     4.5717316005022442E-016
   2.5875000000000002E-002     1.3609699182450142E-015
   2.6250000000000002E-002     3.9771835489029262E-015
   2.6625000000000003E-002     1.1409190300046511E-014
   2.7000000000000003E-002     3.2127076631654578E-014
   2.7375000000000003E-002     8.8800863450022642E-014
   2.7750000000000004E-002     2.4092163512016804E-013
   2.8125000000000004E-002     6.4155389376643401E-013
   2.8500000000000004E-002     1.6767827019470949E-012
   2.8875000000000005E-002     4.3012200862870489E-012
   2.9250000000000005E-002     1.0828220377243403E-011
   2.9625000000000005E-002     2.6752118843230184E-011
   3.0000000000000006E-002     6.4860235741297522E-011
   3.0375000000000006E-002     1.5431021201180439E-010
   3.0750000000000000E-002     3.6023570956345575E-010
   3.1125000000000000E-002     8.2514225753902161E-010
   3.1500000000000000E-002     1.8544080366776435E-009
   3.1875000000000001E-002     4.0886509554620322E-009
   3.2250000000000001E-002     8.8436165033116273E-009
   3.2625000000000001E-002     1.8763926574003293E-008
   3.3000000000000002E-002     3.9050740485582634E-008
   3.3375000000000002E-002     7.9709599805207378E-008
   3.3750000000000002E-002     1.5956295452169019E-007
   3.4125000000000003E-002     3.1322007178041099E-007
   3.4500000000000003E-002     6.0285950273332008E-007
   3.4875000000000003E-002     1.1376058339675204E-006
   3.5250000000000004E-002     2.1043185617549052E-006
   3.5625000000000004E-002     3.8152558263952215E-006
   3.6000000000000004E-002     6.7789384015000098E-006
   3.6375000000000005E-002     1.1802069325412767E-005
   3.6750000000000005E-002     2.0129246578179116E-005
   3.7125000000000005E-002     3.3627086719666416E-005
   3.7500000000000006E-002     5.5009961567843742E-005
   3.7875000000000006E-002     8.8099925406400460E-005
   3.8250000000000006E-002     1.3809380589758385E-004
   3.8625000000000007E-002     2.1178383132041108E-004
   3.9000000000000000E-002     3.1766920112653808E-004
   3.9375000000000000E-002     4.6584597798097289E-004
   3.9750000000000001E-002     6.6755950625526674E-004
   4.0125000000000001E-002     9.3426985643504175E-004
   4.0500000000000001E-002     1.2761699528921336E-003
   4.0875000000000002E-002     1.7000965189687832E-003
   4.1250000000000002E-002     2.2067689147240582E-003
   4.1625000000000002E-002     2.7879927900243510E-003
   4.2000000000000003E-002     3.4235936876947327E-003
   4.2375000000000003E-002     4.0793913269167661E-003
   4.2750000000000003E-002     4.7064377293646667E-003
   4.3125000000000004E-002     5.2425860618456818E-003
   4.3500000000000004E-002     5.6168172354757150E-003
   4.3875000000000004E-002     5.7573934813256351E-003
   4.4250000000000005E-002     5.6005505243012493E-003
   4.4625000000000005E-002     5.1056107479555230E-003
   4.5000000000000005E-002     4.2634163077932821E-003
   4.5375000000000006E-002     3.1093088425263008E-003
   4.5750000000000006E-002     1.7250526374400026E-003
   4.6125000000000006E-002     2.3809895446264440E-004
   4.6500000000000007E-002    -1.1942414971881467E-003
   4.6875000000000007E-002    -2.4012433799682729E-003
   4.7250000000000000E-002    -3.2323437654300045E-003
   4.7625000000000001E-002    -3.5867820859639315E-003
   4.8000000000000001E-002    -3.4410345016174706E-003
   4.8375000000000001E-002    -2.8762003960144775E-003
   4.8750000000000002E-002    -2.0788549659869183E-003
   4.9125000000000002E-002    -1.3324631816117247E-003
   4.9500000000000002E-002    -9.8873957047916346E-004
   4.9875000000000003E-002    -1.4144418309615875E-003
   5.0250000000000003E-002    -2.9407539670503304E-003
   5.0625000000000003E-002    -5.7928659129135853E-003
   5.1000000000000004E-002    -1.0051064245257946E-002
   5.1375000000000004E-002    -1.5598722259261653E-002
   5.1750000000000004E-002    -2.2136890403156979E-002
   5.2125000000000005E-002    -2.9176426550776367E-002
   5.2500000000000005E-002    -3.6114732542039653E-002
   5.2875000000000005E-002    -4.2278712161167728E-002
   5.3250000000000006E-002    -4.7019600996293091E-002
   5.3625000000000006E-002    -4.9782007165643669E-002
   5.4000000000000006E-002    -5.0179701606690032E-002
   5.4375000000000007E-002    -4.8023225518427692E-002
   5.4750000000000007E-002    -4.3352251711631880E-002
   5.5125000000000007E-002    -3.6412008404099187E-002
   5.5500000000000008E-002    -2.7616424404599285E-002
   5.5875000000000008E-002    -1.7498772244649692E-002
   5.6250000000000008E-002    -6.6415205582465008E-003
   5.6625000000000009E-002     4.3800916616922349E-003
   5.7000000000000009E-002     1.5053586595075778E-002
   5.7375000000000009E-002     2.4957981149336284E-002
   5.7750000000000010E-002     3.3787240560058496E-002
   5.8125000000000010E-002     4.1344039629136423E-002
   5.8500000000000010E-002     4.7530184232918264E-002
   5.8875000000000011E-002     5.2317476389787773E-002
   5.9250000000000011E-002     5.5727277327106028E-002
   5.9624999999999997E-002     5.7815492542909630E-002
   5.9999999999999998E-002     5.8650770795345725E-002
   6.0374999999999998E-002     5.8331029013869912E-002
   6.0749999999999998E-002     5.6972094772299822E-002
   6.1124999999999999E-002     5.4747248045630040E-002
   6.1499999999999999E-002     5.1879158899986400E-002
   6.1874999999999999E-002     4.8664281169482626E-002
   6.2250000000000000E-002     4.5442906278970838E-002
   6.2625000000000000E-002     4.2597787355569863E-002
   6.3000000000000000E-002     4.0479416502645554E-002
   6.3375000000000001E-002     3.9352846625352843E-002
   6.3750000000000001E-002     3.9346993409029980E-002
   6.4125000000000001E-002     4.0340577629936897E-002
   6.4500000000000002E-002     4.2002587393739313E-002
   6.4875000000000002E-002     4.3701966841642501E-002
   6.5250000000000002E-002     4.4611578931064363E-002
   6.5625000000000003E-002     4.3789579110639305E-002
   6.6000000000000003E-002     4.0262671951469722E-002
   6.6375000000000003E-002     3.3257120254894697E-002
   6.6750000000000004E-002     2.2268908671728559E-002
   6.7125000000000004E-002     7.2593465251897873E-003
   6.7500000000000004E-002    -1.1321689531196001E-002
   6.7875000000000005E-002    -3.2484061028380626E-002
   6.8250000000000005E-002    -5.4807307064830710E-002
   6.8625000000000005E-002    -7.6561066851563053E-002
   6.9000000000000006E-002    -9.5881515784078566E-002
   6.9375000000000006E-002   -0.11104445166255589     
   6.9750000000000006E-002   -0.12061468537017048     
   7.0125000000000007E-002   -0.12366128119717784     
   7.0500000000000007E-002   -0.11985478865550200     
   7.0875000000000007E-002   -0.10948143926237343     
   7.1250000000000008E-002    -9.3402915948042203E-002
   7.1625000000000008E-002    -7.2953706626364981E-002
   7.2000000000000008E-002    -4.9724698494549774E-002
   7.2375000000000009E-002    -2.5417229290908689E-002
   7.2750000000000009E-002    -1.6824374819493760E-003
   7.3125000000000009E-002     2.0091369163763462E-002
   7.3500000000000010E-002     3.8771653702989094E-002
   7.3875000000000010E-002     5.3592390859368372E-002
   7.4250000000000010E-002     6.4121506008096948E-002
   7.4625000000000011E-002     7.0180434408199377E-002
   7.5000000000000011E-002     7.1826802187779218E-002
   7.5375000000000011E-002     6.9256456335749603E-002
   7.5750000000000012E-002     6.2769463895401265E-002
   7.6124999999999998E-002     5.2731535452090847E-002
   7.6499999999999999E-002     3.9572754541537997E-002
   7.6874999999999999E-002     2.3787781748924493E-002
   7.7249999999999999E-002     5.9800629426138632E-003
   7.7625000000000000E-002    -1.3186050690185075E-002
   7.8000000000000000E-002    -3.2914471751401969E-002
   7.8375000000000000E-002    -5.2374155538626031E-002
   7.8750000000000001E-002    -7.0692348477866387E-002
   7.9125000000000001E-002    -8.7024510474818267E-002
   7.9500000000000001E-002   -0.10062744544808394     
   7.9875000000000002E-002   -0.11088191381505258     
   8.0250000000000002E-002   -0.11736121919228076     
   8.0625000000000002E-002   -0.11981171852467912     
   8.1000000000000003E-002   -0.11817368054951874     
   8.1375000000000003E-002   -0.11252789693972251     
   8.1750000000000003E-002   -0.10308863746238978     
   8.2125000000000004E-002    -9.0107610071479549E-002
   8.2500000000000004E-002    -7.3906033840583668E-002
   8.2875000000000004E-002    -5.4778427532892887E-002
   8.3250000000000005E-002    -3.3042401479192324E-002
   8.3625000000000005E-002    -9.0166373756602296E-003
   8.4000000000000005E-002     1.6963754776396826E-002
   8.4375000000000006E-002     4.4464958827852341E-002
   8.4750000000000006E-002     7.2959083030104371E-002
   8.5125000000000006E-002    0.10175989722808766     
   8.5500000000000007E-002    0.13000479498642672     
   8.5875000000000007E-002    0.15659917361897530     
   8.6250000000000007E-002    0.18032983183365345     
   8.6625000000000008E-002    0.19976689599167252     
   8.7000000000000008E-002    0.21344562637292452     
   8.7375000000000008E-002    0.21997115473665813     
   8.7750000000000009E-002    0.21805431434102193     
   8.8125000000000009E-002    0.20677583318183029     
   8.8500000000000009E-002    0.18568500911684166     
   8.8875000000000010E-002    0.15490115840878427     
   8.9250000000000010E-002    0.11525734523052122     
   8.9625000000000010E-002     6.8323992830826824E-002
   9.0000000000000011E-002     1.6339786654659020E-002
   9.0375000000000011E-002    -3.7821279240876103E-002
   9.0750000000000011E-002    -9.0897260173893712E-002
   9.1125000000000012E-002   -0.13942573619839577     
   9.1500000000000012E-002   -0.18003384673865513     
   9.1875000000000012E-002   -0.20974112957033741     
   9.2250000000000013E-002   -0.22621889659727218     
   9.2624999999999999E-002   -0.22809969583550072     
   9.2999999999999999E-002   -0.21501250540459610     
   9.3375000000000000E-002   -0.18784214134502492     
   9.3750000000000000E-002   -0.14857376760959762     
   9.4125000000000000E-002   -0.10017002632980083     
   9.4500000000000001E-002    -4.6441212342105208E-002
   9.4875000000000001E-002     8.4351401117723906E-003
   9.5250000000000001E-002     6.0158593907270824E-002
   9.5625000000000002E-002    0.10477053445822102     
   9.6000000000000002E-002    0.13899703581374245     
   9.6375000000000002E-002    0.16052802084425330     
   9.6750000000000003E-002    0.16825220998411949     
   9.7125000000000003E-002    0.16230091404679073     
   9.7500000000000003E-002    0.14396727682937271     
   9.7875000000000004E-002    0.11561484124419008     
   9.8250000000000004E-002     8.0286925181664082E-002
   9.8625000000000004E-002     4.1448209597550426E-002
   9.9000000000000005E-002     2.6480924959923387E-003
   9.9375000000000005E-002    -3.2912208724209809E-002
   9.9750000000000005E-002    -6.2535596849607786E-002
  0.10012500000000001         -8.4296617373952928E-002
  0.10050000000000001         -9.7204353806040547E-002
  0.10087500000000001        -0.10106860768859846     
  0.10125000000000001         -9.6607796591403311E-002
  0.10162500000000001         -8.5231700509674144E-002
  0.10200000000000001         -6.8858204237755016E-002
  0.10237500000000001         -4.9722361987617002E-002
  0.10275000000000001         -3.0142964304504555E-002
  0.10312500000000001         -1.2250405950109695E-002
  0.10350000000000001          2.2304300773499648E-003
  0.10387500000000001          1.2067539391945832E-002
  0.10425000000000001          1.6786031510195615E-002
  0.10462500000000001          1.6591527098215222E-002
  0.10500000000000001          1.2286087047960860E-002
  0.10537500000000001          5.2543057493321310E-003
  0.10575000000000001         -2.8990494171294819E-003
  0.10612500000000001         -1.0536378286834474E-002
  0.10650000000000001         -1.6213244312897231E-002
  0.10687500000000001         -1.9010044742588685E-002
  0.10725000000000001         -1.8495060105579966E-002
  0.10762500000000001         -1.4892216740834689E-002
  0.10800000000000001         -8.9379508332344502E-003
  0.10837500000000001         -1.6674109267846109E-003
  0.10875000000000001          5.6932221747719785E-003
  0.10912500000000000          1.2086691321066483E-002
  0.10950000000000000          1.6775326484096201E-002
  0.10987500000000000          1.9392837425755125E-002
  0.11025000000000000          2.0119829981223445E-002
  0.11062500000000001          1.9483126587577518E-002
  0.11100000000000000          1.8277823349849679E-002
  0.11137500000000002          1.7387900100209453E-002
  0.11175000000000000          1.7531830352847340E-002
  0.11212500000000002          1.9119258833533770E-002
  0.11250000000000000          2.2149781040304198E-002
  0.11287500000000002          2.6138316255664783E-002
  0.11325000000000000          3.0146511982282121E-002
  0.11362500000000002          3.2967545220435254E-002
  0.11400000000000000          3.3233096526407116E-002
  0.11437500000000002          2.9677050198989731E-002
  0.11475000000000000          2.1385205442553620E-002
  0.11512500000000002          7.9523347052644997E-003
  0.11550000000000001         -1.0294777468773744E-002
  0.11587500000000002         -3.2303118374388810E-002
  0.11625000000000001         -5.6238184003485410E-002
  0.11662500000000002         -7.9718059617957887E-002
  0.11700000000000001         -9.9982842867035571E-002
  0.11737499999999999        -0.11427790217148734     
  0.11775000000000001        -0.12015251405923755     
  0.11812499999999999        -0.11584382918989947     
  0.11850000000000001        -0.10056777734221016     
  0.11887499999999999         -7.4629898782860721E-002
  0.11925000000000001         -3.9552081643687773E-002
  0.11962500000000000          2.1305995322030927E-003
  0.12000000000000001          4.6963539856774088E-002
  0.12037500000000000          9.1123920732093758E-002
  0.12075000000000001         0.13059022741474025     
  0.12112500000000000         0.16169252366158868     
  0.12150000000000001         0.18149002699485695     
  0.12187500000000000         0.18793768215559342     
  0.12225000000000001         0.18021133471091272     
  0.12262500000000000         0.15873182879912567     
  0.12300000000000001         0.12509872654359075     
  0.12337500000000000          8.1939270824016225E-002
  0.12375000000000001          3.2751913689449290E-002
  0.12412500000000000         -1.8588061288322737E-002
  0.12450000000000001         -6.7916631834444727E-002
  0.12487500000000000        -0.11142503759833218     
  0.12525000000000003        -0.14577443179733002     
  0.12562499999999999        -0.16845397361012165     
  0.12600000000000000        -0.17810218114533793     
  0.12637500000000002        -0.17436108615674395     
  0.12675000000000003        -0.15816531187260993     
  0.12712499999999999        -0.13139767807423774     
  0.12750000000000000         -9.6775026133592679E-002
  0.12787500000000002         -5.7568518011935590E-002
  0.12825000000000003         -1.7206812626218156E-002
  0.12862499999999999          2.0980774677844781E-002
  0.12900000000000000          5.4095847231636490E-002
  0.12937500000000002          7.9935990315115765E-002
  0.12975000000000003          9.7084353307044582E-002
  0.13012499999999999         0.10495081196762460     
  0.13050000000000000         0.10388955484579457     
  0.13087500000000002          9.4940922391413884E-002
  0.13125000000000003          7.9795335926120994E-002
  0.13162499999999999          6.0598138719226619E-002
  0.13200000000000001          3.9777284573928984E-002
  0.13237500000000002          1.9823073966743453E-002
  0.13275000000000003          3.0953773717187758E-003
  0.13312499999999999         -8.3184582127251855E-003
  0.13350000000000001         -1.2883282174169220E-002
  0.13387500000000002         -9.7286237071721147E-003
  0.13424999999999998          1.1933684581396163E-003
  0.13462499999999999          1.9044037443782039E-002
  0.13500000000000001          4.2054623433171651E-002
  0.13537500000000002          6.7684637337575904E-002
  0.13574999999999998          9.2706204677973914E-002
  0.13612500000000000         0.11362368078717852     
  0.13650000000000001         0.12689193844612651     
  0.13687500000000002         0.12945779661410572     
  0.13724999999999998         0.11894908447309405     
  0.13762500000000000          9.4204056415282178E-002
  0.13800000000000001          5.5351054666017585E-002
  0.13837500000000003          3.8760538890477564E-003
  0.13874999999999998         -5.7288738048510437E-002
  0.13912500000000000        -0.12419966600005147     
  0.13950000000000001        -0.19207569527146540     
  0.13987500000000003        -0.25582524434875265     
  0.14024999999999999        -0.31042453108978307     
  0.14062500000000000        -0.35153202862384825     
  0.14100000000000001        -0.37569214048106175     
  0.14137500000000003        -0.38078860062367859     
  0.14174999999999999        -0.36619546506481665     
  0.14212500000000000        -0.33273643605394121     
  0.14250000000000002        -0.28269074151086038     
  0.14287500000000003        -0.21947864348898699     
  0.14324999999999999        -0.14736437941978642     
  0.14362500000000000         -7.0902927311006295E-002
  0.14400000000000002          5.3861725032946749E-003
  0.14437500000000003          7.7592520436158635E-002
  0.14474999999999999         0.14292999728493813     
  0.14512500000000000         0.19975270485361896     
  0.14550000000000002         0.24793858023421728     
  0.14587500000000003         0.28860644716844835     
  0.14624999999999999         0.32385450622470269     
  0.14662500000000001         0.35625303625291405     
  0.14700000000000002         0.38817400997802420     
  0.14737500000000003         0.42126915897861189     
  0.14774999999999999         0.45573436981157489     
  0.14812500000000001         0.49017200549434681     
  0.14850000000000002         0.52138889253004062     
  0.14887500000000004         0.54465382054709532     
  0.14924999999999999         0.55433521660814156     
  0.14962500000000001         0.54451906197603606     
  0.15000000000000002         0.51001191221211883     
  0.15037499999999998         0.44711407647637547     
  0.15075000000000000         0.35442842145915732     
  0.15112500000000001         0.23318130462437114     
  0.15150000000000002          8.7499316666042826E-002
  0.15187499999999998         -7.5849059128425378E-002
  0.15225000000000000        -0.24794729598378451     
  0.15262500000000001        -0.41856213529780173     
  0.15300000000000002        -0.57683766075438703     
  0.15337499999999998        -0.71270027482546783     
  0.15375000000000000        -0.81732022389722259     
  0.15412500000000001        -0.88427406130704744     
  0.15450000000000003        -0.91017915684564943     
  0.15487499999999998        -0.89470996291593474     
  0.15525000000000000        -0.84106739082516313     
  0.15562500000000001        -0.75528585281658400     
  0.15600000000000003        -0.64565161763084755     
  0.15637499999999999        -0.52186509214268528     
  0.15675000000000000        -0.39366427091421030     
  0.15712500000000001        -0.26976965346656007     
  0.15750000000000003        -0.15666811302639322     
  0.15787499999999999         -5.8058206158063175E-002
  0.15825000000000000          2.5825082267041860E-002
  0.15862500000000002          9.7591041156685709E-002
  0.15900000000000003         0.16236094433507253     
  0.15937499999999999         0.22635039813558619     
  0.15975000000000000         0.29540909464029247     
  0.16012500000000002         0.37395246948840055     
  0.16050000000000003         0.46308692985899019     
  0.16087499999999999         0.56044378421848828     
  0.16125000000000000         0.65961819139648536     
  0.16162500000000002         0.75062771503745063     
  0.16200000000000003         0.82134836727060079     
  0.16237499999999999         0.85860585617211305     
  0.16275000000000001         0.85044073358502947     
  0.16312500000000002         0.78803796178904739     
  0.16350000000000003         0.66710299225616199     
  0.16387499999999999         0.48961384262538821     
  0.16425000000000001         0.26411648438076168     
  0.16462500000000002          5.5559287060271897E-003
  0.16500000000000004        -0.26554165802433793     
  0.16537499999999999        -0.52498400198914685     
  0.16575000000000001        -0.74755767399536222     
  0.16612500000000002        -0.90951107840173062     
  0.16650000000000004        -0.99175123321568748     
  0.16687500000000000        -0.98268684257507233     
  0.16725000000000001        -0.87940798446156943     
  0.16762500000000002        -0.68951341408201383     
  0.16799999999999998        -0.43030427985351483     
  0.16837500000000000        -0.12722747285842487     
  0.16875000000000001         0.18862611442341332     
  0.16912500000000003         0.48417168601029914     
  0.16949999999999998         0.72826017566216739     
  0.16987500000000000         0.89540665563362365     
  0.17025000000000001         0.96877100660817050     
  0.17062500000000003         0.94205544804658503     
  0.17099999999999999         0.82046255993702955     
  0.17137500000000000         0.61921868716710737     
  0.17175000000000001         0.36187402335644053     
  0.17212500000000003          7.7220695349062701E-002
  0.17249999999999999        -0.20466049665630187     
  0.17287500000000000        -0.45556558758687837     
  0.17325000000000002        -0.65243478578008762     
  0.17362500000000003        -0.77979709597864233     
  0.17399999999999999        -0.83055702861454761     
  0.17437500000000000        -0.80654501096244602     
  0.17475000000000002        -0.71704498254828541     
  0.17512500000000003        -0.57736875155778611     
  0.17549999999999999        -0.40627543830045587     
  0.17587500000000000        -0.22334048872500278     
  0.17625000000000002         -4.6886683431198853E-002
  0.17662500000000003         0.10809355318886904     
  0.17699999999999999         0.23140169659318946     
  0.17737500000000000         0.31764696824710725     
  0.17775000000000002         0.36621561921037105     
  0.17812500000000003         0.38079437450166276     
  0.17849999999999999         0.36723168059132344     
  0.17887500000000001         0.33298219540779156     
  0.17925000000000002         0.28553955692410649     
  0.17962500000000003         0.23105898439081690     
  0.17999999999999999         0.17455866691193545     
  0.18037500000000001         0.11913190799935802     
  0.18075000000000002          6.6501810582305268E-002
  0.18112500000000004          1.7643947316832019E-002
  0.18149999999999999         -2.7103881755863909E-002
  0.18187500000000001         -6.6826957671179410E-002
  0.18225000000000002        -0.10061410331973143     
  0.18262500000000004        -0.12681992446184956     
  0.18300000000000000        -0.14365347135891066     
  0.18337500000000001        -0.14968006173680423     
  0.18375000000000002        -0.14397637894103885     
  0.18412499999999998        -0.12686065448908068     
  0.18450000000000000         -9.9891076030232659E-002
  0.18487500000000001         -6.5896053320265574E-002
  0.18525000000000003         -2.8901743512355818E-002
  0.18562499999999998          6.7289430287430022E-003
  0.18600000000000000          3.6590175266082728E-002
  0.18637500000000001          5.7109273989219528E-002
  0.18675000000000003          6.5899275812494176E-002
  0.18712499999999999          6.2333065133131013E-002
  0.18750000000000000          4.7476597337880629E-002
  0.18787500000000001          2.3902004792058715E-002
  0.18825000000000003         -4.5335420899682184E-003
  0.18862499999999999         -3.3584327102745046E-002
  0.18900000000000000         -5.9095789208720231E-002