  -1.4999999999999999E-002     0.0000000000000000     
  -1.4624999999999999E-002     0.0000000000000000     
  -1.4249999999999999E-002     0.0000000000000000     
  -1.3874999999999998E-002     0.0000000000000000     
  -1.3500000000000000E-002     0.0000000000000000     
  -1.3125000000000000E-002     0.0000000000000000     
  -1.2749999999999999E-002     0.0000000000000000     
  -1.2374999999999999E-002     0.0000000000000000     
  -1.2000000000000000E-002     0.0000000000000000     
  -1.1625000000000000E-002     0.0000000000000000     
  -1.1250000000000000E-002     0.0000000000000000     
  -1.0874999999999999E-002     0.0000000000000000     
  -1.0499999999999999E-002     0.0000000000000000     
  -1.0124999999999999E-002     0.0000000000000000     
  -9.7499999999999983E-003     0.0000000000000000     
  -9.3749999999999979E-003     0.0000000000000000     
  -8.9999999999999993E-003     0.0000000000000000     
  -8.6249999999999990E-003     0.0000000000000000     
  -8.2500000000000004E-003     0.0000000000000000     
  -7.8750000000000001E-003     0.0000000000000000     
  -7.4999999999999989E-003     0.0000000000000000     
  -7.1249999999999994E-003     0.0000000000000000     
  -6.7499999999999991E-003     0.0000000000000000     
  -6.3749999999999987E-003     0.0000000000000000     
  -5.9999999999999984E-003     0.0000000000000000     
  -5.6249999999999998E-003     0.0000000000000000     
  -5.2499999999999995E-003     0.0000000000000000     
  -4.8749999999999991E-003     0.0000000000000000     
  -4.4999999999999988E-003    -7.9024409813131194E-038
  -4.1249999999999985E-003    -7.1006017590199696E-036
  -3.7499999999999981E-003     4.7974432881087235E-035
  -3.3749999999999995E-003    -6.3017047356803893E-035
  -2.9999999999999992E-003    -1.3092098167181418E-033
  -2.6249999999999989E-003     3.3386235052207853E-033
  -2.2499999999999985E-003     4.9700673892452816E-033
  -1.8749999999999982E-003    -1.9463265444436001E-032
  -1.4999999999999996E-003     3.4273249268112754E-032
  -1.1249999999999993E-003    -6.0787115494289520E-032
  -7.4999999999999893E-004     1.1663315751235487E-031
  -3.7499999999999860E-004    -2.0788869943989016E-031
   1.7347234759768071E-018     3.1305691322240925E-031
   3.7500000000000207E-004    -3.4775422775954424E-031
   7.5000000000000067E-004     2.0416995109643219E-031
   1.1250000000000010E-003     3.3539880095298091E-032
   1.5000000000000013E-003     1.7716278126715237E-031
   1.8750000000000017E-003    -1.8298127074194110E-030
   2.2500000000000020E-003     5.5259147568051320E-030
   2.6250000000000023E-003    -1.2152451200316620E-029
   3.0000000000000027E-003     3.3108669884235572E-029
   3.3750000000000030E-003    -6.6013881460277996E-029
   3.7499999999999999E-003    -1.4974995342956275E-028
   4.1250000000000002E-003     1.5255132187367415E-027
   4.5000000000000005E-003    -4.3444124677727750E-027
   4.8750000000000009E-003    -1.9587128485765726E-028
   5.2500000000000012E-003     5.0670270286096369E-026
   5.6250000000000015E-003    -2.7807820632880001E-025
   6.0000000000000019E-003     1.4656405016334625E-024
   6.3750000000000022E-003     1.1041078531938924E-023
   6.7500000000000025E-003     3.8392409738837725E-023
   7.1250000000000029E-003     1.4709684635882571E-022
   7.5000000000000032E-003     5.5505006533638123E-022
   7.8750000000000001E-003     2.0640570315368910E-021
   8.2500000000000004E-003     7.5394574958321188E-021
   8.6250000000000007E-003     2.7050885952222177E-020
   9.0000000000000011E-003     9.5229623631719268E-020
   9.3750000000000014E-003     3.2929924426126074E-019
   9.7500000000000017E-003     1.1178743807565110E-018
   1.0125000000000002E-002     3.7252310503689363E-018
   1.0500000000000002E-002     1.2189582873561458E-017
   1.0875000000000003E-002     3.9153732326897958E-017
   1.1250000000000003E-002     1.2347176927593306E-016
   1.1625000000000003E-002     3.8223186734427004E-016
   1.2000000000000000E-002     1.1616040965848602E-015
   1.2375000000000001E-002     3.4653081110549427E-015
   1.2750000000000001E-002     1.0147670956081692E-014
   1.3125000000000001E-002     2.9169097624398529E-014
   1.3500000000000002E-002     8.2298539573654795E-014
   1.3875000000000002E-002     2.2791024884297857E-013
   1.4250000000000002E-002     6.1947274506726993E-013
   1.4625000000000003E-002     1.6525207156876422E-012
   1.5000000000000003E-002     4.3263920116964979E-012
   1.5375000000000003E-002     1.1115711375546601E-011
   1.5750000000000004E-002     2.8026004198462238E-011
   1.6125000000000000E-002     6.9338868287877616E-011
   1.6500000000000001E-002     1.6832913026197578E-010
   1.6875000000000001E-002     4.0094744474441260E-010
   1.7250000000000001E-002     9.3697956534818062E-010
   1.7625000000000002E-002     2.1481232225514151E-009
   1.8000000000000002E-002     4.8311412335027867E-009
   1.8375000000000002E-002     1.0657512057302667E-008
   1.8750000000000003E-002     2.3059729317118947E-008
   1.9125000000000003E-002     4.8931962551816738E-008
   1.9500000000000003E-002     1.0182070948531398E-007
   1.9875000000000004E-002     2.0774444159709030E-007
   2.0250000000000004E-002     4.1555407180608243E-007
   2.0625000000000004E-002     8.1482600471973417E-007
   2.1000000000000005E-002     1.5659639904266009E-006
   2.1375000000000005E-002     2.9492098323585589E-006
   2.1750000000000005E-002     5.4419544402244888E-006
   2.2125000000000006E-002     9.8365139649684839E-006
   2.2499999999999999E-002     1.7412706613628672E-005
   2.2875000000000000E-002     3.0179257122117052E-005
   2.3250000000000000E-002     5.1197627050771514E-005
   2.3625000000000000E-002     8.4982183239042884E-005
   2.4000000000000000E-002     1.3796862743332847E-004
   2.4375000000000001E-002     2.1897789265128332E-004
   2.4750000000000001E-002     3.3959163355810505E-004
   2.5125000000000001E-002     5.1423452073626555E-004
   2.5500000000000002E-002     7.5977103058975622E-004
   2.5875000000000002E-002     1.0941996709132021E-003
   2.6250000000000002E-002     1.5342867843751852E-003
   2.6625000000000003E-002     2.0914307311664299E-003
   2.7000000000000003E-002     2.7661125151106540E-003
   2.7375000000000003E-002     3.5405152740441937E-003
   2.7750000000000004E-002     4.3699036869003982E-003
   2.8125000000000004E-002     5.1740088000791426E-003
   2.8500000000000004E-002     5.8305855307647526E-003
   2.8875000000000005E-002     6.1714586443459025E-003
   2.9250000000000005E-002     5.9873708565765654E-003
   2.9625000000000005E-002     5.0402839489053271E-003
   3.0000000000000006E-002     3.0875056088900885E-003
   3.0375000000000006E-002    -8.2787515478793296E-005
   3.0750000000000000E-002    -4.6068516415145059E-003
   3.1125000000000000E-002    -1.0496189260832524E-002
   3.1500000000000000E-002    -1.7593176449609445E-002
   3.1875000000000001E-002    -2.5536933364078404E-002
   3.2250000000000001E-002    -3.3760119375341534E-002
   3.2625000000000001E-002    -4.1504067005096179E-002
   3.3000000000000002E-002    -4.7897700207419389E-002
   3.3375000000000002E-002    -5.2039454543966829E-002
   3.3750000000000002E-002    -5.3140128271851036E-002
   3.4125000000000003E-002    -5.0647910540142629E-002
   3.4500000000000003E-002    -4.4380755306913350E-002
   3.4875000000000003E-002    -3.4598833976542800E-002
   3.5250000000000004E-002    -2.2040950278396289E-002
   3.5625000000000004E-002    -7.8495954498620062E-003
   3.6000000000000004E-002     6.5724337104313690E-003
   3.6375000000000005E-002     1.9737360209343559E-002
   3.6750000000000005E-002     3.0369058749244442E-002
   3.7125000000000005E-002     3.7598470594302630E-002
   3.7500000000000006E-002     4.1194280232844327E-002
   3.7875000000000006E-002     4.1636921394368698E-002
   3.8250000000000006E-002     4.0121197458419244E-002
   3.8625000000000007E-002     3.8360803106956096E-002
   3.9000000000000000E-002     3.8333802432317883E-002
   3.9375000000000000E-002     4.1916525170583425E-002
   3.9750000000000001E-002     5.0439032915654505E-002
   4.0125000000000001E-002     6.4398948247937168E-002
   4.0500000000000001E-002     8.3120848407555847E-002
   4.0875000000000002E-002    0.10474261996945519     
   4.1250000000000002E-002    0.12627763367680414     
   4.1625000000000002E-002    0.14391563548526137     
   4.2000000000000003E-002    0.15354074157287434     
   4.2375000000000003E-002    0.15126744281898447     
   4.2750000000000003E-002    0.13416123413459075     
   4.3125000000000004E-002    0.10071981295032398     
   4.3500000000000004E-002     5.1424667918284941E-002
   4.3875000000000004E-002    -1.1123328437163904E-002
   4.4250000000000005E-002    -8.2192955480544505E-002
   4.4625000000000005E-002   -0.15531184625980979     
   4.5000000000000005E-002   -0.22286382750475259     
   4.5375000000000006E-002   -0.27697181423417599     
   4.5750000000000006E-002   -0.31048938124862924     
   4.6125000000000006E-002   -0.31794538775970194     
   4.6500000000000007E-002   -0.29651245615558575     
   4.6875000000000007E-002   -0.24649919366188100     
   4.7250000000000000E-002   -0.17166776825615881     
   4.7625000000000001E-002    -7.8921384277551340E-002
   4.8000000000000001E-002     2.2358921387930442E-002
   4.8375000000000001E-002    0.12137887977737288     
   4.8750000000000002E-002    0.20737256473913701     
   4.9125000000000002E-002    0.27097833941797633     
   4.9500000000000002E-002    0.30560471897477842     
   4.9875000000000003E-002    0.30835508521921795     
   5.0250000000000003E-002    0.28052534115586236     
   5.0625000000000003E-002    0.22742409360234805     
   5.1000000000000004E-002    0.15771105105307826     
   5.1375000000000004E-002     8.2140432309512151E-002
   5.1750000000000004E-002     1.2046727714318903E-002
   5.2125000000000005E-002    -4.2202481853162888E-002
   5.2500000000000005E-002    -7.2675869226990486E-002
   5.2875000000000005E-002    -7.4913968466888275E-002
   5.3250000000000006E-002    -4.8582114207359361E-002
   5.3625000000000006E-002     2.5320835716003479E-003
   5.4000000000000006E-002     7.0928930585266045E-002
   5.4375000000000007E-002    0.14622618266210041     
   5.4750000000000007E-002    0.21639961030024807     
   5.5125000000000007E-002    0.26887813051394271     
   5.5500000000000008E-002    0.29208075816396906     
   5.5875000000000008E-002    0.27640163968798565     
   5.6250000000000008E-002    0.21554134259608143     
   5.6625000000000009E-002    0.10715950200210334     
   5.7000000000000009E-002    -4.6389694033316387E-002
   5.7375000000000009E-002   -0.23775045052860744     
   5.7750000000000010E-002   -0.45481067948574938     
   5.8125000000000010E-002   -0.68112854626928843     
   5.8500000000000010E-002   -0.89712204620562130     
   5.8875000000000011E-002    -1.0816092446502312     
   5.9250000000000011E-002    -1.2137601767376089     
   5.9624999999999997E-002    -1.2753856781747399     
   5.9999999999999998E-002    -1.2530978469054657     
   6.0374999999999998E-002    -1.1402560488521152     
   6.0749999999999998E-002   -0.93817440097384575     
   6.1124999999999999E-002   -0.65676399120234863     
   6.1499999999999999E-002   -0.31387862238431030     
   6.1874999999999999E-002     6.6144500448766630E-002
   6.2250000000000000E-002    0.45478621065897862     
   6.2625000000000000E-002    0.82228610992315154     
   6.3000000000000000E-002     1.1405752034697465     
   6.3375000000000001E-002     1.3864048229336075     
   6.3750000000000001E-002     1.5432340297253306     
   6.4125000000000001E-002     1.6030437123338546     
   6.4500000000000002E-002     1.5665561102904100     
   6.4875000000000002E-002     1.4425774810502476     
   6.5250000000000002E-002     1.2467811393451784     
   6.5625000000000003E-002    0.99956338441719872     
   6.6000000000000003E-002    0.72352030042961180     
   6.6375000000000003E-002    0.44131520019487536     
   6.6750000000000004E-002    0.17331985498837005     
   6.7125000000000004E-002    -6.3959251526782390E-002
   6.7500000000000004E-002   -0.25872970027485986     
   6.7875000000000005E-002   -0.40471091180360491     
   6.8250000000000005E-002   -0.50025012477830855     
   6.8625000000000005E-002   -0.54835344293185795     
   6.9000000000000006E-002   -0.55499994925191554     
   6.9375000000000006E-002   -0.52826176913021849     
   6.9750000000000006E-002   -0.47732455550431174     
   7.0125000000000007E-002   -0.41098619163443328     
   7.0500000000000007E-002   -0.33747376313989763     
   7.0875000000000007E-002   -0.26354831736420492     
   7.1250000000000008E-002   -0.19459465495720185     
   7.1625000000000008E-002   -0.13440740656562028     
   7.2000000000000008E-002    -8.5248820386076118E-002
   7.2375000000000009E-002    -4.8222647517162515E-002
   7.2750000000000009E-002    -2.3075575915483912E-002
   7.3125000000000009E-002    -8.7071589080425366E-003
   7.3500000000000010E-002    -3.2471443409225614E-003
   7.3875000000000010E-002    -4.4182158205491769E-003
   7.4250000000000010E-002    -9.9983492960355781E-003
   7.4625000000000011E-002    -1.8559036484346699E-002
   7.5000000000000011E-002    -2.9724972662208235E-002
   7.5375000000000011E-002    -4.5005331063675297E-002
   7.5750000000000012E-002    -6.8000278762044730E-002
   7.6124999999999998E-002   -0.10389219740058853     
   7.6499999999999999E-002   -0.15901067675323094     
   7.6874999999999999E-002   -0.23918928581008569     
   7.7249999999999999E-002   -0.34786530577976227     
   7.7625000000000000E-002   -0.48405663374925600     
   7.8000000000000000E-002   -0.64051250572659968     
   7.8375000000000000E-002   -0.80242511658900550     
   7.8750000000000001E-002   -0.94781978330461769     
   7.9125000000000001E-002    -1.0491999435633170     
   7.9500000000000001E-002    -1.0768170283834331     
   7.9875000000000002E-002    -1.0034551986977180     
   8.0250000000000002E-002   -0.80985410489067755     
   8.0625000000000002E-002   -0.48967525674334200     
   8.1000000000000003E-002    -5.3466564050844934E-002
   8.1375000000000003E-002    0.46981950943999218     
   8.1750000000000003E-002     1.0340920577700867     
   8.2125000000000004E-002     1.5805835616337189     
   8.2500000000000004E-002     2.0443899225573818     
   8.2875000000000004E-002     2.3637053589046606     
   8.3250000000000005E-002     2.4880879916708030     
   8.3625000000000005E-002     2.3866041906922955     
   8.4000000000000005E-002     2.0531769961496402     
   8.4375000000000006E-002     1.5083642121433507     
   8.4750000000000006E-002    0.79778841934586531     
   8.5125000000000006E-002    -1.3245145216735033E-002
   8.5500000000000007E-002   -0.84743576866331960     
   8.5875000000000007E-002    -1.6247854054980273     
   8.6250000000000007E-002    -2.2718385919701829     
   8.6625000000000008E-002    -2.7296437416829629     
   8.7000000000000008E-002    -2.9596202883049632     
   8.7375000000000008E-002    -2.9461989041125700     
   8.7750000000000009E-002    -2.6970522775579906     
   8.8125000000000009E-002    -2.2404669555411894     
   8.8500000000000009E-002    -1.6208050206207210     
   8.8875000000000010E-002   -0.89272402812891904     
   8.9250000000000010E-002   -0.11513485731315853     
   8.9625000000000010E-002    0.65415685391143619     
   9.0000000000000011E-002     1.3633757939299045     
   9.0375000000000011E-002     1.9700809050412333     
   9.0750000000000011E-002     2.4433169271623911     
   9.1125000000000012E-002     2.7641114877215753     
   9.1500000000000012E-002     2.9252664091247054     
   9.1875000000000012E-002     2.9298844060586258     
   9.2250000000000013E-002     2.7898831363564343     
   9.2624999999999999E-002     2.5236762283755310     
   9.2999999999999999E-002     2.1542027957237719     
   9.3375000000000000E-002     1.7066893765430695     
   9.3750000000000000E-002     1.2075112436276734     
   9.4125000000000000E-002    0.68200570840033370     
   9.4500000000000001E-002    0.15411957440039536     
   9.4875000000000001E-002   -0.35509321917211700     
   9.5250000000000001E-002   -0.82747855229482958     
   9.5625000000000002E-002    -1.2483349055346138     
   9.6000000000000002E-002    -1.6065509113793932     
   9.6375000000000002E-002    -1.8942591156682489     
   9.6750000000000003E-002    -2.1071653735619860     
   9.7125000000000003E-002    -2.2435622713596755     
   9.7500000000000003E-002    -2.3047786766178704     
   9.7875000000000004E-002    -2.2942831803547441     
   9.8250000000000004E-002    -2.2174084585196239     
   9.8625000000000004E-002    -2.0811830342341260     
   9.9000000000000005E-002    -1.8937929906577162     
   9.9375000000000005E-002    -1.6640981390064224     
   9.9750000000000005E-002    -1.4014970493285057     
  0.10012500000000001         -1.1157764689363900     
  0.10050000000000001        -0.81594908631241658     
  0.10087500000000001        -0.51117449127831993     
  0.10125000000000001        -0.20971288561705959     
  0.10162500000000001          8.1064171732182277E-002
  0.10200000000000001         0.35466179353036331     
  0.10237500000000001         0.60540422940631511     
  0.10275000000000001         0.82903398910243231     
  0.10312500000000001          1.0221164875925060     
  0.10350000000000001          1.1820881068756692     
  0.10387500000000001          1.3078182769604927     
  0.10425000000000001          1.3986437872395603     
  0.10462500000000001          1.4549473522464180     
  0.10500000000000001          1.4778067071412355     
  0.10537500000000001          1.4689195349593414     
  0.10575000000000001          1.4304250456406353     
  0.10612500000000001          1.3650342402526823     
  0.10650000000000001          1.2758164345887613     
  0.10687500000000001          1.1658967897441466     
  0.10725000000000001          1.0388431176207984     
  0.10762500000000001         0.89822372060391897     
  0.10800000000000001         0.74762338621940128     
  0.10837500000000001         0.59068112064898004     
  0.10875000000000001         0.43073070276630177     
  0.10912500000000000         0.27114245355864164     
  0.10950000000000000         0.11487324937516086     
  0.10987500000000000         -3.5318853294811436E-002
  0.11025000000000000        -0.17712418499326565     
  0.11062500000000001        -0.30834524569967375     
  0.11100000000000000        -0.42738981651920338     
  0.11137500000000002        -0.53294593708332316     
  0.11175000000000000        -0.62395283312091410     
  0.11212500000000002        -0.69988987440687833     
  0.11250000000000000        -0.76047307148589449     
  0.11287500000000002        -0.80565013518797679     
  0.11325000000000000        -0.83558929920136404     
  0.11362500000000002        -0.85087571951831054     
  0.11400000000000000        -0.85198324910600620     
  0.11437500000000002        -0.83956869965426995     
  0.11475000000000000        -0.81464886769810119     
  0.11512500000000002        -0.77799761311935467     
  0.11550000000000001        -0.73072817994650063     
  0.11587500000000002        -0.67395591240014951     
  0.11625000000000001        -0.60901998078381059     
  0.11662500000000002        -0.53692596983695862     
  0.11700000000000001        -0.45938293668890440     
  0.11737499999999999        -0.37763170890755049     
  0.11775000000000001        -0.29304804048037514     
  0.11812499999999999        -0.20723273889759641     
  0.11850000000000001        -0.12153926915843813     
  0.11887499999999999         -3.7495295655408212E-002
  0.11925000000000001          4.3721460774690857E-002
  0.11962500000000000         0.12076301210858897     
  0.12000000000000001         0.19258985330418196     
  0.12037500000000000         0.25823268729915849     
  0.12075000000000001         0.31701462415198739     
  0.12112500000000000         0.36829233812451234     
  0.12150000000000001         0.41178893699738806     
  0.12187500000000000         0.44721040636913512     
  0.12225000000000001         0.47438360434725790     
  0.12262500000000000         0.49349537199833415     
  0.12300000000000001         0.50466412790041437     
  0.12337500000000000         0.50797288039400890     
  0.12375000000000001         0.50387952277208004     
  0.12412500000000000         0.49271389290936685     
  0.12450000000000001         0.47481588964468524     
  0.12487500000000000         0.45076376816663677     
  0.12525000000000003         0.42113069851610141     
  0.12562499999999999         0.38621572882365207     
  0.12600000000000000         0.34704922391780824     
  0.12637500000000002         0.30411036150700244     
  0.12675000000000003         0.25815935530443368     
  0.12712499999999999         0.21020732911912904     
  0.12750000000000000         0.16090299985953549     
  0.12787500000000002         0.11129220082631380     
  0.12825000000000003          6.2123842459284900E-002
  0.12862499999999999          1.4231721681082554E-002
  0.12900000000000000         -3.1615613621110261E-002
  0.12937500000000002         -7.4859999080824080E-002
  0.12975000000000003        -0.11492181293587664     
  0.13012499999999999        -0.15141299520207127     
  0.13050000000000000        -0.18409322685748597     
  0.13087500000000002        -0.21267477993298645     
  0.13125000000000003        -0.23717127948491878     
  0.13162499999999999        -0.25748669240306932     
  0.13200000000000001        -0.27372260849073043     
  0.13237500000000002        -0.28586370808934614     
  0.13275000000000003        -0.29408163650810060     
  0.13312499999999999        -0.29832449460947807     
  0.13350000000000001        -0.29879363364777745     
  0.13387500000000002        -0.29545854896634816     
  0.13424999999999998        -0.28850982050444596     
  0.13462499999999999        -0.27785253403180465     
  0.13500000000000001        -0.26382669151228699     
  0.13537500000000002        -0.24662952150090378     
  0.13574999999999998        -0.22638856812105790     
  0.13612500000000000        -0.20358885395054582     
  0.13650000000000001        -0.17867017987544676     
  0.13687500000000002        -0.15197335639816306     
  0.13724999999999998        -0.12411917896748736     
  0.13762500000000000         -9.5522232500204113E-002
  0.13800000000000001         -6.6800377759501983E-002
  0.13837500000000003         -3.8161751718628567E-002
  0.13874999999999998         -1.0427946520843084E-002
  0.13912500000000000          1.6358308900181556E-002
  0.13950000000000001          4.1776355507490204E-002
  0.13987500000000003          6.5537047623797695E-002
  0.14024999999999999          8.7550104793683609E-002
  0.14062500000000000         0.10767866071424045     
  0.14100000000000001         0.12572450069820046     
  0.14137500000000003         0.14180430884227752     
  0.14174999999999999         0.15576591343077417     
  0.14212500000000000         0.16742448269585158     
  0.14250000000000002         0.17691635273963474     
  0.14287500000000003         0.18397122067270361     
  0.14324999999999999         0.18854163378863137     
  0.14362500000000000         0.19060830094917808     
  0.14400000000000002         0.19003326729049830     
  0.14437500000000003         0.18686839602934208     
  0.14474999999999999         0.18111660689405640     
  0.14512500000000000         0.17295065299381562     
  0.14550000000000002         0.16241419259341028     
  0.14587500000000003         0.14982625359845514     
  0.14624999999999999         0.13553445324354318     
  0.14662500000000001         0.11966806809542313     
  0.14700000000000002         0.10285630623512548     
  0.14737500000000003          8.5330371344251033E-002
  0.14774999999999999          6.7433644845700691E-002
  0.14812500000000001          4.9656641771070709E-002
  0.14850000000000002          3.2158037626647963E-002
  0.14887500000000004          1.5071449502160619E-002
  0.14924999999999999         -1.2834141460903864E-003
  0.14962500000000001         -1.6836040649820944E-002
  0.15000000000000002         -3.1704147058108187E-002
  0.15037499999999998         -4.5591471653302927E-002
  0.15075000000000000         -5.8654522644993934E-002
  0.15112500000000001         -7.0829557713911098E-002
  0.15150000000000002         -8.1991294516289503E-002
  0.15187499999999998         -9.2081815523202853E-002
  0.15225000000000000        -0.10113014677852400     
  0.15262500000000001        -0.10888063576746224     
  0.15300000000000002        -0.11516266615307896     
  0.15337499999999998        -0.11988066807217604     
  0.15375000000000000        -0.12285459271083840     
  0.15412500000000001        -0.12401311541084992     
  0.15450000000000003        -0.12318468203645100     
  0.15487499999999998        -0.12048179843344653     
  0.15525000000000000        -0.11603385704220498     
  0.15562500000000001        -0.10998579644578621     
  0.15600000000000003        -0.10271022451649708     
  0.15637499999999999         -9.4270557712734709E-002
  0.15675000000000000         -8.5207081218558106E-002
  0.15712500000000001         -7.5574894538817189E-002
  0.15750000000000003         -6.5650768154234568E-002
  0.15787499999999999         -5.5529070319082663E-002
  0.15825000000000000         -4.5189448150515149E-002
  0.15862500000000002         -3.4813694419101274E-002
  0.15900000000000003         -2.4463664225338314E-002
  0.15937499999999999         -1.3892594592820842E-002
  0.15975000000000000         -3.5500816500633955E-003
  0.16012500000000002          6.7633001828537528E-003
  0.16050000000000003          1.6798566178562450E-002
  0.16087499999999999          2.6474381863915847E-002
  0.16125000000000000          3.5780933664837741E-002
  0.16162500000000002          4.4598814819472914E-002
  0.16200000000000003          5.2665606837726642E-002
  0.16237499999999999          6.0246554517458750E-002
  0.16275000000000001          6.6926183898822336E-002
  0.16312500000000002          7.2804805239158193E-002
  0.16350000000000003          7.7537712370486400E-002
  0.16387499999999999          8.1027814769051326E-002
  0.16425000000000001          8.3233766155278055E-002
  0.16462500000000002          8.3884504282361577E-002
  0.16500000000000004          8.3069749471637450E-002
  0.16537499999999999          8.0867263744959950E-002
  0.16575000000000001          7.7299638969145684E-002
  0.16612500000000002          7.2893519970783555E-002
  0.16650000000000004          6.7728874842493236E-002
  0.16687500000000000          6.2122573035587964E-002
  0.16725000000000001          5.6336694700029971E-002
  0.16762500000000002          5.0527110945661091E-002
  0.16799999999999998          4.4714360285111360E-002
  0.16837500000000000          3.8982514141168365E-002
  0.16875000000000001          3.3063236593107878E-002
  0.16912500000000003          2.7065035213284870E-002
  0.16949999999999998          2.0812819076781834E-002
  0.16987500000000000          1.4331529589225019E-002
  0.17025000000000001          7.4874765919065132E-003
  0.17062500000000003          4.8233225853874101E-004
  0.17099999999999999         -6.7244065344305055E-003
  0.17137500000000000         -1.3952923992839414E-002
  0.17175000000000001         -2.1022056379460058E-002
  0.17212500000000003         -2.7877041268377263E-002
  0.17249999999999999         -3.4302860048223124E-002
  0.17287500000000000         -3.9974907019607486E-002
  0.17325000000000002         -4.4922996652413186E-002
  0.17362500000000003         -4.8971000690730973E-002
  0.17399999999999999         -5.2060047230081466E-002
  0.17437500000000000         -5.4080051736688770E-002
  0.17475000000000002         -5.5225470232091192E-002
  0.17512500000000003         -5.5498785772737133E-002
  0.17549999999999999         -5.4938970405771392E-002
  0.17587500000000000         -5.3848771308858484E-002
  0.17625000000000002         -5.2119462070657388E-002
  0.17662500000000003         -4.9921460323259934E-002
  0.17699999999999999         -4.7456916424969714E-002
  0.17737500000000000         -4.4606856406607581E-002
  0.17775000000000002         -4.1511615512866848E-002
  0.17812500000000003         -3.8198559938979346E-002
  0.17849999999999999         -3.4578647003885091E-002
  0.17887500000000001         -3.0820492580198450E-002
  0.17925000000000002         -2.6782793706624286E-002
  0.17962500000000003         -2.2356735949088838E-002
  0.17999999999999999         -1.7704300195784076E-002
  0.18037500000000001         -1.2783362118875662E-002
  0.18075000000000002         -7.6499320312913132E-003
  0.18112500000000004         -2.3090181406533721E-003
  0.18149999999999999          3.0438386076998801E-003
  0.18187500000000001          8.2584412446076432E-003
  0.18225000000000002          1.3249191503583255E-002
  0.18262500000000004          1.7894553860523865E-002
  0.18300000000000000          2.2075781949588726E-002
  0.18337500000000001          2.5767021155321056E-002
  0.18375000000000002          2.8827161037169355E-002
  0.18412499999999998          3.1309100736358134E-002
  0.18450000000000000          3.3231485863488223E-002
  0.18487500000000001          3.4651122647923860E-002
  0.18525000000000003          3.5518480143105199E-002
  0.18562499999999998          3.5917707747474381E-002
  0.18600000000000000          3.6148300348703560E-002
  0.18637500000000001          3.5955350364261424E-002
  0.18675000000000003          3.5597081061924760E-002
  0.18712499999999999          3.5125365582560325E-002
  0.18750000000000000          3.4275152831698699E-002
  0.18787500000000001          3.3361840132925230E-002
  0.18825000000000003          3.2168907470340707E-002
  0.18862499999999999          3.0419568427400470E-002
  0.18900000000000000          2.8437598832221980E-002