  -1.4999999999999999E-002     0.0000000000000000     
  -1.4624999999999999E-002     0.0000000000000000     
  -1.4249999999999999E-002     0.0000000000000000     
  -1.3874999999999998E-002     0.0000000000000000     
  -1.3500000000000000E-002     0.0000000000000000     
  -1.3125000000000000E-002     0.0000000000000000     
  -1.2749999999999999E-002     0.0000000000000000     
  -1.2374999999999999E-002     0.0000000000000000     
  -1.2000000000000000E-002     0.0000000000000000     
  -1.1625000000000000E-002     0.0000000000000000     
  -1.1250000000000000E-002     0.0000000000000000     
  -1.0874999999999999E-002     0.0000000000000000     
  -1.0499999999999999E-002     0.0000000000000000     
  -1.0124999999999999E-002     0.0000000000000000     
  -9.7499999999999983E-003     1.0544187478757517E-037
  -9.3749999999999979E-003     4.0201522954961579E-036
  -8.9999999999999993E-003    -2.1316001674183513E-035
  -8.6249999999999990E-003    -2.2113308582804219E-034
  -8.2500000000000004E-003     1.1741458481771237E-033
  -7.8750000000000001E-003    -4.5510311557202064E-033
  -7.4999999999999989E-003     8.7674958603977876E-033
  -7.1249999999999994E-003    -6.3416510951255822E-033
  -6.7499999999999991E-003    -3.2713273692495151E-032
  -6.3749999999999987E-003     1.7563889387909778E-031
  -5.9999999999999984E-003    -5.1561212108383079E-031
  -5.6249999999999998E-003     1.1101694656124537E-030
  -5.2499999999999995E-003    -1.8934199806326868E-030
  -4.8749999999999991E-003     2.8756817335820187E-030
  -4.4999999999999988E-003    -5.2147226359781082E-030
  -4.1249999999999985E-003     1.3245247321547836E-029
  -3.7499999999999981E-003    -3.5597930826740558E-029
  -3.3749999999999995E-003     8.1610450957269289E-029
  -2.9999999999999992E-003    -1.5165641632964249E-028
  -2.6249999999999989E-003     2.2928555598474861E-028
  -2.2499999999999985E-003    -2.9108158467106581E-028
  -1.8749999999999982E-003     3.3988698480591277E-028
  -1.4999999999999996E-003    -4.3714165210691192E-028
  -1.1249999999999993E-003     6.9374712775089238E-028
  -7.4999999999999893E-004    -1.2183991197708507E-027
  -3.7499999999999860E-004     2.0729666125943745E-027
   1.7347234759768071E-018    -3.1970985505442345E-027
   3.7500000000000207E-004     3.9148880120536427E-027
   7.5000000000000067E-004    -1.3271892294210637E-027
   1.1250000000000010E-003    -1.3029278208878085E-026
   1.5000000000000013E-003     5.8513080025103831E-026
   1.8750000000000017E-003    -1.7478640970128303E-025
   2.2500000000000020E-003     4.4358507208685902E-025
   2.6250000000000023E-003    -1.0447401155186668E-024
   3.0000000000000027E-003     2.4305818558425841E-024
   3.3750000000000030E-003    -6.0829708011408134E-024
   3.7499999999999999E-003     1.7167340488956600E-023
   4.1250000000000002E-003    -4.1880734538233547E-023
   4.5000000000000005E-003     1.6206962743956331E-022
   4.8750000000000009E-003    -6.7809381142453843E-023
   5.2500000000000012E-003     4.5116499085585460E-022
   5.6250000000000015E-003     3.2749446882246216E-021
   6.0000000000000019E-003     2.0969706729165695E-021
   6.3750000000000022E-003     3.3887414925049837E-020
   6.7500000000000025E-003     7.8547979728409048E-020
   7.1250000000000029E-003     3.1115406282051607E-019
   7.5000000000000032E-003     1.0330790409200182E-018
   7.8750000000000001E-003     3.6602567858563378E-018
   8.2500000000000004E-003     1.1224794159210991E-017
   8.6250000000000007E-003     3.8538764440143659E-017
   9.0000000000000011E-003     1.1894199886501328E-016
   9.3750000000000014E-003     3.7525954441295239E-016
   9.7500000000000017E-003     1.1440230538810192E-015
   1.0125000000000002E-002     3.4591863343445899E-015
   1.0500000000000002E-002     1.0157187297336537E-014
   1.0875000000000003E-002     2.9546575030041864E-014
   1.1250000000000003E-002     8.3885193540793721E-014
   1.1625000000000003E-002     2.3441071849978248E-013
   1.2000000000000000E-002     6.4184789046675610E-013
   1.2375000000000001E-002     1.7276740028049569E-012
   1.2750000000000001E-002     4.5561791195876623E-012
   1.3125000000000001E-002     1.1808810321596588E-011
   1.3500000000000002E-002     3.0005549066622565E-011
   1.3875000000000002E-002     7.4847687983797666E-011
   1.4250000000000002E-002     1.8319872698317561E-010
   1.4625000000000003E-002     4.3981650059262875E-010
   1.5000000000000003E-002     1.0364480496520517E-009
   1.5375000000000003E-002     2.3948761378795627E-009
   1.5750000000000004E-002     5.4307911406233399E-009
   1.6125000000000000E-002     1.2076462276804273E-008
   1.6500000000000001E-002     2.6342839697047951E-008
   1.6875000000000001E-002     5.6351938097349034E-008
   1.7250000000000001E-002     1.1821175177872752E-007
   1.7625000000000002E-002     2.4314462956553124E-007
   1.8000000000000002E-002     4.9030672606345996E-007
   1.8375000000000002E-002     9.6921537954853363E-007
   1.8750000000000003E-002     1.8777765796785914E-006
   1.9125000000000003E-002     3.5652037645458931E-006
   1.9500000000000003E-002     6.6321054496415455E-006
   1.9875000000000004E-002     1.2085456340767204E-005
   2.0250000000000004E-002     2.1568433968440177E-005
   2.0625000000000004E-002     3.7688172460355759E-005
   2.1000000000000005E-002     6.4461845752725102E-005
   2.1375000000000005E-002     1.0788434511843261E-004
   2.1750000000000005E-002     1.7660934135694525E-004
   2.2125000000000006E-002     2.8266461357489485E-004
   2.2499999999999999E-002     4.4208733231828305E-004
   2.2875000000000000E-002     6.7523403377073125E-004
   2.3250000000000000E-002     1.0064666842010234E-003
   2.3625000000000000E-002     1.4626732326977903E-003
   2.4000000000000000E-002     2.0702996785048654E-003
   2.4375000000000001E-002     2.8500737264874243E-003
   2.4750000000000001E-002     3.8095044858219500E-003
   2.5125000000000001E-002     4.9325084309187117E-003
   2.5500000000000002E-002     6.1675762027679536E-003
   2.5875000000000002E-002     7.4152152243298387E-003
   2.6250000000000002E-002     8.5167408818980928E-003
   2.6625000000000003E-002     9.2507121754363993E-003
   2.7000000000000003E-002     9.3339833125867192E-003
   2.7375000000000003E-002     8.4432202896795559E-003
   2.7750000000000004E-002     6.2435155940160081E-003
   2.8125000000000004E-002     2.4475600237970100E-003
   2.8500000000000004E-002    -3.1289424334904172E-003
   2.8875000000000005E-002    -1.0479473208495748E-002
   2.9250000000000005E-002    -1.9351656640336223E-002
   2.9625000000000005E-002    -2.9181166451148609E-002
   3.0000000000000006E-002    -3.9092616741634327E-002
   3.0375000000000006E-002    -4.7924982368207497E-002
   3.0750000000000000E-002    -5.4340854556326743E-002
   3.1125000000000000E-002    -5.6986607701003979E-002
   3.1500000000000000E-002    -5.4705969438352681E-002
   3.1875000000000001E-002    -4.6771063439145569E-002
   3.2250000000000001E-002    -3.3113280983192633E-002
   3.2625000000000001E-002    -1.4464704339590592E-002
   3.3000000000000002E-002     7.5623422963853396E-003
   3.3375000000000002E-002     3.0584136950154911E-002
   3.3750000000000002E-002     5.1619017082280796E-002
   3.4125000000000003E-002     6.7516070524641619E-002
   3.4500000000000003E-002     7.5312984882054387E-002
   3.4875000000000003E-002     7.2758473342304925E-002
   3.5250000000000004E-002     5.8711697097803696E-002
   3.5625000000000004E-002     3.3359182531447942E-002
   3.6000000000000004E-002    -1.6050628475999112E-003
   3.6375000000000005E-002    -4.3240323952815109E-002
   3.6750000000000005E-002    -8.7571045542031198E-002
   3.7125000000000005E-002   -0.13021414572413104     
   3.7500000000000006E-002   -0.16680267745967553     
   3.7875000000000006E-002   -0.19362420997437069     
   3.8250000000000006E-002   -0.20788730202396274     
   3.8625000000000007E-002   -0.20794516010975383     
   3.9000000000000000E-002   -0.19323869462940324     
   3.9375000000000000E-002   -0.16399401196076213     
   3.9750000000000001E-002   -0.12084669719996377     
   4.0125000000000001E-002    -6.4502134726502264E-002
   4.0500000000000001E-002     4.5766782763254962E-003
   4.0875000000000002E-002     8.6202062549520869E-002
   4.1250000000000002E-002    0.18016798832205647     
   4.1625000000000002E-002    0.28580161080400118     
   4.2000000000000003E-002    0.40126562998592757     
   4.2375000000000003E-002    0.52282819750299048     
   4.2750000000000003E-002    0.64441703613748036     
   4.3125000000000004E-002    0.75736782986942885     
   4.3500000000000004E-002    0.85071511941675981     
   4.3875000000000004E-002    0.91209594865163834     
   4.4250000000000005E-002    0.92895834151287704     
   4.4625000000000005E-002    0.89027767116338707     
   4.5000000000000005E-002    0.78820021038321042     
   4.5375000000000006E-002    0.61971317734558495     
   4.5750000000000006E-002    0.38767712979077334     
   4.6125000000000006E-002    0.10138517309327937     
   4.6500000000000007E-002   -0.22378522706201393     
   4.6875000000000007E-002   -0.56733055578000646     
   4.7250000000000000E-002   -0.90530589381893023     
   4.7625000000000001E-002    -1.2126311666265368     
   4.8000000000000001E-002    -1.4653107110677732     
   4.8375000000000001E-002    -1.6427771817895420     
   4.8750000000000002E-002    -1.7299952572577066     
   4.9125000000000002E-002    -1.7188559586975267     
   4.9500000000000002E-002    -1.6090241421913771     
   4.9875000000000003E-002    -1.4081885648915926     
   5.0250000000000003E-002    -1.1312351348458110     
   5.0625000000000003E-002   -0.79911449436126414     
   5.1000000000000004E-002   -0.43704134029241770     
   5.1375000000000004E-002    -7.1997222115190815E-002
   5.1750000000000004E-002    0.26947137906113261     
   5.2125000000000005E-002    0.56384004759016826     
   5.2500000000000005E-002    0.79271646166900755     
   5.2875000000000005E-002    0.94448050050486865     
   5.3250000000000006E-002     1.0152521324114567     
   5.3625000000000006E-002     1.0089445281391933     
   5.4000000000000006E-002    0.93676479956224512     
   5.4375000000000007E-002    0.81522516063583306     
   5.4750000000000007E-002    0.66453036263196474     
   5.5125000000000007E-002    0.50628603312700138     
   5.5500000000000008E-002    0.36073279213776510     
   5.5875000000000008E-002    0.24489337277766840     
   5.6250000000000008E-002    0.17108576964417269     
   5.6625000000000009E-002    0.14559082873016083     
   5.7000000000000009E-002    0.16825862789900117     
   5.7375000000000009E-002    0.23273202681107588     
   5.7750000000000010E-002    0.32676783164784956     
   5.8125000000000010E-002    0.43336806732293642     
   5.8500000000000010E-002    0.53227788085723360     
   5.8875000000000011E-002    0.60159332807239363     
   5.9250000000000011E-002    0.62030040129426856     
   5.9624999999999997E-002    0.57071473883609658     
   5.9999999999999998E-002    0.44151995070843675     
   6.0374999999999998E-002    0.23045204591183385     
   6.0749999999999998E-002    -5.3722079537792816E-002
   6.1124999999999999E-002   -0.38968660952154532     
   6.1499999999999999E-002   -0.74467169265538347     
   6.1874999999999999E-002    -1.0766062550228748     
   6.2250000000000000E-002    -1.3385325601563185     
   6.2625000000000000E-002    -1.4851050055760089     
   6.3000000000000000E-002    -1.4789063416420909     
   6.3375000000000001E-002    -1.2974175754929202     
   6.3750000000000001E-002   -0.93816303024130354     
   6.4125000000000001E-002   -0.42156074396264204     
   6.4500000000000002E-002    0.20978922457777138     
   6.4875000000000002E-002    0.89482638501048950     
   6.5250000000000002E-002     1.5608014964793360     
   6.5625000000000003E-002     2.1323210044476659     
   6.6000000000000003E-002     2.5410916111655153     
   6.6375000000000003E-002     2.7343026136477668     
   6.6750000000000004E-002     2.6818994398994089     
   6.7125000000000004E-002     2.3797867113309157     
   6.7500000000000004E-002     1.8500397301737113     
   6.7875000000000005E-002     1.1377135117743582     
   6.8250000000000005E-002    0.30497176030335654     
   6.8625000000000005E-002   -0.57687812143962358     
   6.9000000000000006E-002    -1.4352406088931910     
   6.9375000000000006E-002    -2.2035247613571713     
   6.9750000000000006E-002    -2.8277104064754690     
   7.0125000000000007E-002    -3.2697153465392526     
   7.0500000000000007E-002    -3.5093353091976174     
   7.0875000000000007E-002    -3.5439801491275169     
   7.1250000000000008E-002    -3.3860932093210456     
   7.1625000000000008E-002    -3.0605173505398291     
   7.2000000000000008E-002    -2.6002838986347054     
   7.2375000000000009E-002    -2.0428842558150189     
   7.2750000000000009E-002    -1.4268505349551965     
   7.3125000000000009E-002   -0.78844839580145853     
   7.3500000000000010E-002   -0.16042926556156117     
   7.3875000000000010E-002    0.42997311211164069     
   7.4250000000000010E-002    0.96203875769117320     
   7.4625000000000011E-002     1.4199903000701544     
   7.5000000000000011E-002     1.7945676165207329     
   7.5375000000000011E-002     2.0813917770115902     
   7.5750000000000012E-002     2.2796534400369923     
   7.6124999999999998E-002     2.3927442424148140     
   7.6499999999999999E-002     2.4264260195998526     
   7.6874999999999999E-002     2.3878822437699037     
   7.7249999999999999E-002     2.2862556948752415     
   7.7625000000000000E-002     2.1308767976312950     
   7.8000000000000000E-002     1.9315384862419520     
   7.8375000000000000E-002     1.6981308717394623     
   7.8750000000000001E-002     1.4397261229940368     
   7.9125000000000001E-002     1.1653848955894688     
   7.9500000000000001E-002    0.88323838186773962     
   7.9875000000000002E-002    0.60056147572724505     
   8.0250000000000002E-002    0.32415333318040623     
   8.0625000000000002E-002     5.9419658671297976E-002
   8.1000000000000003E-002   -0.18845254426198138     
   8.1375000000000003E-002   -0.41576904779265433     
   8.1750000000000003E-002   -0.61931128079901643     
   8.2125000000000004E-002   -0.79655123339564304     
   8.2500000000000004E-002   -0.94629897064946900     
   8.2875000000000004E-002    -1.0672606121330905     
   8.3250000000000005E-002    -1.1591966861551288     
   8.3625000000000005E-002    -1.2225212794687366     
   8.4000000000000005E-002    -1.2578933884907777     
   8.4375000000000006E-002    -1.2665086980581970     
   8.4750000000000006E-002    -1.2500302966079275     
   8.5125000000000006E-002    -1.2105010863573185     
   8.5500000000000007E-002    -1.1503010345243445     
   8.5875000000000007E-002    -1.0719320055500758     
   8.6250000000000007E-002   -0.97810565587230947     
   8.6625000000000008E-002   -0.87191885539331737     
   8.7000000000000008E-002   -0.75613270655427511     
   8.7375000000000008E-002   -0.63367374003724719     
   8.7750000000000009E-002   -0.50744727889894192     
   8.8125000000000009E-002   -0.38013753983895560     
   8.8500000000000009E-002   -0.25416016682923159     
   8.8875000000000010E-002   -0.13199197088887515     
   8.9250000000000010E-002    -1.5401050018304618E-002
   8.9625000000000010E-002     9.3903868052845840E-002
   9.0000000000000011E-002    0.19452474819040905     
   9.0375000000000011E-002    0.28540600678868394     
   9.0750000000000011E-002    0.36581126564251737     
   9.1125000000000012E-002    0.43550266065739168     
   9.1500000000000012E-002    0.49368780368199777     
   9.1875000000000012E-002    0.54077688704217086     
   9.2250000000000013E-002    0.57672089793729930     
   9.2624999999999999E-002    0.60162840196133516     
   9.2999999999999999E-002    0.61611424224735811     
   9.3375000000000000E-002    0.62057839744032595     
   9.3750000000000000E-002    0.61552375162169781     
   9.4125000000000000E-002    0.60181069822486033     
   9.4500000000000001E-002    0.58006261050173880     
   9.4875000000000001E-002    0.55101845290357354     
   9.5250000000000001E-002    0.51564034826175598     
   9.5625000000000002E-002    0.47483669031421138     
   9.6000000000000002E-002    0.42934332729653624     
   9.6375000000000002E-002    0.38030935305582891     
   9.6750000000000003E-002    0.32870264371577845     
   9.7125000000000003E-002    0.27519941687105431     
   9.7500000000000003E-002    0.22091279182721765     
   9.7875000000000004E-002    0.16652230238191218     
   9.8250000000000004E-002    0.11268777933882090     
   9.8625000000000004E-002     6.0083813005312424E-002
   9.9000000000000005E-002     9.2418668254900041E-003
   9.9375000000000005E-002    -3.9435144475458442E-002
   9.9750000000000005E-002    -8.5495586313851651E-002
  0.10012500000000001        -0.12850927659462261     
  0.10050000000000001        -0.16830215510828417     
  0.10087500000000001        -0.20437689450637292     
  0.10125000000000001        -0.23673474069349712     
  0.10162500000000001        -0.26480303452175946     
  0.10200000000000001        -0.28853900379435082     
  0.10237500000000001        -0.30778056673640791     
  0.10275000000000001        -0.32217745574900503     
  0.10312500000000001        -0.33172827547076578     
  0.10350000000000001        -0.33631076700820256     
  0.10387500000000001        -0.33591656138988357     
  0.10425000000000001        -0.33076733547438636     
  0.10462500000000001        -0.32095057492664986     
  0.10500000000000001        -0.30689200130304944     
  0.10537500000000001        -0.28880102473161001     
  0.10575000000000001        -0.26750035931833022     
  0.10612500000000001        -0.24303125831875783     
  0.10650000000000001        -0.21632024218513246     
  0.10687500000000001        -0.18768756699274103     
  0.10725000000000001        -0.15777428472328076     
  0.10762500000000001        -0.12714970203402551     
  0.10800000000000001         -9.6189938209742795E-002
  0.10837500000000001         -6.5441464427445056E-002
  0.10875000000000001         -3.5266705178001234E-002
  0.10912500000000000         -5.9986391284237352E-003
  0.10950000000000000          2.1999794198001021E-002
  0.10987500000000000          4.8686825079408469E-002
  0.11025000000000000          7.3609125483571486E-002
  0.11062500000000001          9.6605285286208403E-002
  0.11100000000000000         0.11764218326689863     
  0.11137500000000002         0.13630013132949498     
  0.11175000000000000         0.15250798731474255     
  0.11212500000000002         0.16619225989245456     
  0.11250000000000000         0.17710736760866666     
  0.11287500000000002         0.18524526586237039     
  0.11325000000000000         0.19058717174425996     
  0.11362500000000002         0.19320118959869509     
  0.11400000000000000         0.19302939337948027     
  0.11437500000000002         0.19028163872898846     
  0.11475000000000000         0.18522258853207538     
  0.11512500000000002         0.17791778958197857     
  0.11550000000000001         0.16863145517869255     
  0.11587500000000002         0.15773762753332185     
  0.11625000000000001         0.14543988994299195     
  0.11662500000000002         0.13201736600379460     
  0.11700000000000001         0.11767813349851222     
  0.11737499999999999         0.10278220696682480     
  0.11775000000000001          8.7242382073509955E-002
  0.11812499999999999          7.1436674099875835E-002
  0.11850000000000001          5.5514813510711913E-002
  0.11887499999999999          3.9207745216454398E-002
  0.11925000000000001          2.3002508960427544E-002
  0.11962500000000000          7.0183728488303464E-003
  0.12000000000000001         -8.9913233203313212E-003
  0.12037500000000000         -2.4564109535645591E-002
  0.12075000000000001         -3.9539744628581848E-002
  0.12112500000000000         -5.3896588094076145E-002
  0.12150000000000001         -6.7363090438634962E-002
  0.12187500000000000         -7.9561593077131315E-002
  0.12225000000000001         -9.0573756086601731E-002
  0.12262500000000000        -0.10006049123375992     
  0.12300000000000001        -0.10775235936978399     
  0.12337500000000000        -0.11372269557037799     
  0.12375000000000001        -0.11793690985150661     
  0.12412500000000000        -0.12019627680354925     
  0.12450000000000001        -0.12076588010495226     
  0.12487500000000000        -0.11972852827796618     
  0.12525000000000003        -0.11715404908819838     
  0.12562499999999999        -0.11334544027138113     
  0.12600000000000000        -0.10825336361062239     
  0.12637500000000002        -0.10224730672828436     
  0.12675000000000003         -9.5414580301959082E-002
  0.12712499999999999         -8.7651207176458121E-002
  0.12750000000000000         -7.9427035438565594E-002
  0.12787500000000002         -7.0464721678997644E-002
  0.12825000000000003         -6.0909684264631288E-002
  0.12862499999999999         -5.1080354430132473E-002
  0.12900000000000000         -4.0579176223937460E-002
  0.12937500000000002         -2.9811815489334460E-002
  0.12975000000000003         -1.8877077863865201E-002
  0.13012499999999999         -7.7557411419953946E-003
  0.13050000000000000          3.2698902911224249E-003
  0.13087500000000002          1.4014123485757578E-002
  0.13125000000000003          2.4206202241449638E-002
  0.13162499999999999          3.3851417545892167E-002
  0.13200000000000001          4.2561330595372315E-002
  0.13237500000000002          5.0196608752037596E-002
  0.13275000000000003          5.7062854131110168E-002
  0.13312499999999999          6.2492356339266253E-002
  0.13350000000000001          6.6946696934161942E-002
  0.13387500000000002          7.0516228109438098E-002
  0.13424999999999998          7.2803339657239660E-002
  0.13462499999999999          7.4257241004820965E-002
  0.13500000000000001          7.4990481623366120E-002
  0.13537500000000002          7.4854253134083268E-002
  0.13574999999999998          7.4011257074709347E-002
  0.13612500000000000          7.2645238101116560E-002
  0.13650000000000001          7.0761821549099033E-002
  0.13687500000000002          6.8275769512488843E-002
  0.13724999999999998          6.5297426511006507E-002
  0.13762500000000000          6.1836197234020562E-002
  0.13800000000000001          5.7561230761418572E-002
  0.13837500000000003          5.2708738886296666E-002
  0.13874999999999998          4.7183049315599628E-002
  0.13912500000000000          4.0679471582366858E-002
  0.13950000000000001          3.3708984257531091E-002
  0.13987500000000003          2.6218431990069634E-002
  0.14024999999999999          1.8324434549891810E-002
  0.14062500000000000          1.0478457501740309E-002
  0.14100000000000001          2.8476436500307748E-003
  0.14137500000000003         -4.5113194717035093E-003
  0.14174999999999999         -1.1126685719994801E-002
  0.14212500000000000         -1.7150785419590357E-002
  0.14250000000000002         -2.2676581416860242E-002
  0.14287500000000003         -2.7550693155775831E-002
  0.14324999999999999         -3.1849060980726006E-002
  0.14362500000000000         -3.5904464850799275E-002
  0.14400000000000002         -3.9598825036885568E-002
  0.14437500000000003         -4.2794042268030394E-002
  0.14474999999999999         -4.5558776416132506E-002
  0.14512500000000000         -4.7946933340025068E-002
  0.14550000000000002         -4.9574584947574996E-002
  0.14587500000000003         -5.0562791448108935E-002
  0.14624999999999999         -5.1045196004718754E-002
  0.14662500000000001         -5.0665631946280543E-002
  0.14700000000000002         -4.9776089496826645E-002
  0.14737500000000003         -4.8559431928467248E-002
  0.14774999999999999         -4.6677773027275084E-002
  0.14812500000000001         -4.4360730090322112E-002
  0.14850000000000002         -4.1841966004601397E-002
  0.14887500000000004         -3.8633268726105632E-002
  0.14924999999999999         -3.5065417948643512E-002
  0.14962500000000001         -3.1106159539276257E-002
  0.15000000000000002         -2.6664269571315569E-002
  0.15037499999999998         -2.2045011294593818E-002
  0.15075000000000000         -1.7229821138885111E-002
  0.15112500000000001         -1.2465142205916864E-002
  0.15150000000000002         -7.6303340200867603E-003
  0.15187499999999998         -2.9905490166528830E-003
  0.15225000000000000          1.2830606536997887E-003
  0.15262500000000001          5.7155851208831113E-003
  0.15300000000000002          9.7785253841501905E-003
  0.15337499999999998          1.3656642005924561E-002
  0.15375000000000000          1.7499772183053319E-002
  0.15412500000000001          2.1023707239152600E-002
  0.15450000000000003          2.4263155315748703E-002
  0.15487499999999998          2.7299186457683401E-002
  0.15525000000000000          2.9937078654036275E-002
  0.15562500000000001          3.1960446481780709E-002
  0.15600000000000003          3.3655382481652979E-002
  0.15637499999999999          3.4947318826572940E-002
  0.15675000000000000          3.5362878278360849E-002
  0.15712500000000001          3.5355403490454448E-002
  0.15750000000000003          3.4908748495551707E-002
  0.15787499999999999          3.3784446237873259E-002
  0.15825000000000000          3.2304676084428836E-002
  0.15862500000000002          3.0603532446498358E-002
  0.15900000000000003          2.8567206829920082E-002
  0.15937499999999999          2.6551609811109420E-002
  0.15975000000000000          2.4428448997363971E-002
  0.16012500000000002          2.2360250300257192E-002
  0.16050000000000003          2.0202040637132962E-002
  0.16087499999999999          1.8018673452845087E-002
  0.16125000000000000          1.5826239847687964E-002
  0.16162500000000002          1.3368692455156801E-002
  0.16200000000000003          1.0803928075407334E-002
  0.16237499999999999          8.1125933734020397E-003
  0.16275000000000001          5.0336606004171090E-003
  0.16312500000000002          2.0548859861003145E-003
  0.16350000000000003         -1.3178936316002678E-003
  0.16387499999999999         -4.7540258796127622E-003
  0.16425000000000001         -8.1194879018938095E-003
  0.16462500000000002         -1.1452375947675971E-002
  0.16500000000000004         -1.4683880455139183E-002
  0.16537499999999999         -1.7441941594474337E-002
  0.16575000000000001         -1.9826188636340152E-002
  0.16612500000000002         -2.1720346620587156E-002
  0.16650000000000004         -2.3067816799742773E-002
  0.16687500000000000         -2.3833781364702988E-002
  0.16725000000000001         -2.4185080141929317E-002
  0.16762500000000002         -2.4158751500124902E-002
  0.16799999999999998         -2.3737931447379446E-002
  0.16837500000000000         -2.3182612169272740E-002
  0.16875000000000001         -2.2521603226208727E-002
  0.16912500000000003         -2.1705948605178962E-002
  0.16949999999999998         -2.0914650325667000E-002
  0.16987500000000000         -2.0137315975774200E-002
  0.17025000000000001         -1.9360902954171148E-002
  0.17062500000000003         -1.8399839448599461E-002
  0.17099999999999999         -1.7521430648037073E-002
  0.17137500000000000         -1.6353063678144646E-002
  0.17175000000000001         -1.4920906248946061E-002
  0.17212500000000003         -1.3240253686098727E-002
  0.17249999999999999         -1.1175032549176372E-002
  0.17287500000000000         -8.8298329661451597E-003
  0.17325000000000002         -6.1912890403207493E-003
  0.17362500000000003         -3.3861378762195882E-003
  0.17399999999999999         -5.7520805496502050E-004
  0.17437500000000000          2.1965402318475350E-003
  0.17475000000000002          4.7838781376775899E-003
  0.17512500000000003          7.1017114215738272E-003
  0.17549999999999999          9.0690276176889732E-003
  0.17587500000000000          1.0635429856513834E-002
  0.17625000000000002          1.1965670222617492E-002
  0.17662500000000003          1.2840886174616256E-002
  0.17699999999999999          1.3480522993591345E-002
  0.17737500000000000          1.4003938883120140E-002
  0.17775000000000002          1.4220594030592089E-002
  0.17812500000000003          1.4569793371140529E-002
  0.17849999999999999          1.4854148257376007E-002
  0.17887500000000001          1.5135937602054743E-002
  0.17925000000000002          1.5549675222892072E-002
  0.17962500000000003          1.5919487851661002E-002
  0.17999999999999999          1.6306409575672483E-002
  0.18037500000000001          1.6488850204624560E-002
  0.18075000000000002          1.6419574233999406E-002
  0.18112500000000004          1.6183971610401957E-002
  0.18149999999999999          1.5430859535487996E-002
  0.18187500000000001          1.4478871197485694E-002
  0.18225000000000002          1.3077360712104148E-002
  0.18262500000000004          1.1353875125411323E-002
  0.18300000000000000          9.5620784544688357E-003
  0.18337500000000001          7.4637729448168797E-003
  0.18375000000000002          5.4136824260553745E-003
  0.18412499999999998          3.4489932715168320E-003
  0.18450000000000000          1.5424824129654506E-003
  0.18487500000000001         -3.0322365312398332E-006
  0.18525000000000003         -1.4219529770737602E-003
  0.18562499999999998         -2.5866156314808108E-003
  0.18600000000000000         -3.4051784181204710E-003
  0.18637500000000001         -4.1913742072047545E-003
  0.18675000000000003         -4.8005691074643423E-003
  0.18712499999999999         -5.5367503141422018E-003
  0.18750000000000000         -6.2470827610368509E-003
  0.18787500000000001         -7.0338935069222640E-003
  0.18825000000000003         -8.1461717322855037E-003
  0.18862499999999999         -9.1115355833626746E-003
  0.18900000000000000         -1.0242200865165200E-002