  -1.4999999999999999E-002     0.0000000000000000     
  -1.4624999999999999E-002     0.0000000000000000     
  -1.4249999999999999E-002     0.0000000000000000     
  -1.3874999999999998E-002     0.0000000000000000     
  -1.3500000000000000E-002     0.0000000000000000     
  -1.3125000000000000E-002     0.0000000000000000     
  -1.2749999999999999E-002     0.0000000000000000     
  -1.2374999999999999E-002     0.0000000000000000     
  -1.2000000000000000E-002     0.0000000000000000     
  -1.1625000000000000E-002     0.0000000000000000     
  -1.1250000000000000E-002     0.0000000000000000     
  -1.0874999999999999E-002     0.0000000000000000     
  -1.0499999999999999E-002     0.0000000000000000     
  -1.0124999999999999E-002     0.0000000000000000     
  -9.7499999999999983E-003     0.0000000000000000     
  -9.3749999999999979E-003     0.0000000000000000     
  -8.9999999999999993E-003     0.0000000000000000     
  -8.6249999999999990E-003     0.0000000000000000     
  -8.2500000000000004E-003     0.0000000000000000     
  -7.8750000000000001E-003     0.0000000000000000     
  -7.4999999999999989E-003     0.0000000000000000     
  -7.1249999999999994E-003     0.0000000000000000     
  -6.7499999999999991E-003     0.0000000000000000     
  -6.3749999999999987E-003     0.0000000000000000     
  -5.9999999999999984E-003     0.0000000000000000     
  -5.6249999999999998E-003     0.0000000000000000     
  -5.2499999999999995E-003     0.0000000000000000     
  -4.8749999999999991E-003     0.0000000000000000     
  -4.4999999999999988E-003     0.0000000000000000     
  -4.1249999999999985E-003     0.0000000000000000     
  -3.7499999999999981E-003     0.0000000000000000     
  -3.3749999999999995E-003     0.0000000000000000     
  -2.9999999999999992E-003     0.0000000000000000     
  -2.6249999999999989E-003     0.0000000000000000     
  -2.2499999999999985E-003     0.0000000000000000     
  -1.8749999999999982E-003     0.0000000000000000     
  -1.4999999999999996E-003     0.0000000000000000     
  -1.1249999999999993E-003     0.0000000000000000     
  -7.4999999999999893E-004     0.0000000000000000     
  -3.7499999999999860E-004     0.0000000000000000     
   1.7347234759768071E-018     0.0000000000000000     
   3.7500000000000207E-004     0.0000000000000000     
   7.5000000000000067E-004     0.0000000000000000     
   1.1250000000000010E-003     0.0000000000000000     
   1.5000000000000013E-003     0.0000000000000000     
   1.8750000000000017E-003     0.0000000000000000     
   2.2500000000000020E-003     0.0000000000000000     
   2.6250000000000023E-003     0.0000000000000000     
   3.0000000000000027E-003     0.0000000000000000     
   3.3750000000000030E-003     0.0000000000000000     
   3.7499999999999999E-003     0.0000000000000000     
   4.1250000000000002E-003     0.0000000000000000     
   4.5000000000000005E-003     0.0000000000000000     
   4.8750000000000009E-003     0.0000000000000000     
   5.2500000000000012E-003     0.0000000000000000     
   5.6250000000000015E-003     0.0000000000000000     
   6.0000000000000019E-003     0.0000000000000000     
   6.3750000000000022E-003     0.0000000000000000     
   6.7500000000000025E-003     0.0000000000000000     
   7.1250000000000029E-003     0.0000000000000000     
   7.5000000000000032E-003     0.0000000000000000     
   7.8750000000000001E-003     0.0000000000000000     
   8.2500000000000004E-003     0.0000000000000000     
   8.6250000000000007E-003     0.0000000000000000     
   9.0000000000000011E-003     0.0000000000000000     
   9.3750000000000014E-003     0.0000000000000000     
   9.7500000000000017E-003     0.0000000000000000     
   1.0125000000000002E-002     0.0000000000000000     
   1.0500000000000002E-002     0.0000000000000000     
   1.0875000000000003E-002     0.0000000000000000     
   1.1250000000000003E-002     0.0000000000000000     
   1.1625000000000003E-002     1.3969129233624955E-051
   1.2000000000000000E-002     1.0409004604328116E-049
   1.2375000000000001E-002    -3.3201827395358404E-038
   1.2750000000000001E-002     2.0754893963495649E-035
   1.3125000000000001E-002     1.6334392367500878E-035
   1.3500000000000002E-002    -3.3149318243004879E-033
   1.3875000000000002E-002    -9.2206801924844758E-032
   1.4250000000000002E-002    -7.9122943122572108E-032
   1.4625000000000003E-002     3.6322030814011955E-030
   1.5000000000000003E-002    -3.5974545768038968E-030
   1.5375000000000003E-002    -9.0643894205530340E-029
   1.5750000000000004E-002     5.2016018829768403E-028
   1.6125000000000000E-002    -1.1225035203003984E-027
   1.6500000000000001E-002    -1.6397007463436163E-027
   1.6875000000000001E-002     2.1705131185121864E-026
   1.7250000000000001E-002    -1.0687382572061878E-025
   1.7625000000000002E-002     5.4681076023939043E-025
   1.8000000000000002E-002     4.1531921442962096E-024
   1.8375000000000002E-002     1.4474489790834250E-023
   1.8750000000000003E-002     5.5580626784514620E-023
   1.9125000000000003E-002     2.0984844215774040E-022
   1.9500000000000003E-002     7.8169978418210033E-022
   1.9875000000000004E-002     2.8567859144506311E-021
   2.0250000000000004E-002     1.0250566580472509E-020
   2.0625000000000004E-002     3.6114439251660952E-020
   2.1000000000000005E-002     1.2492628677329568E-019
   2.1375000000000005E-002     4.2428331657528566E-019
   2.1750000000000005E-002     1.4147621936064157E-018
   2.2125000000000006E-002     4.6315974901697852E-018
   2.2499999999999999E-002     1.4886186722147999E-017
   2.2875000000000000E-002     4.6972053438337390E-017
   2.3250000000000000E-002     1.4550801800841251E-016
   2.3625000000000000E-002     4.4250330979719953E-016
   2.4000000000000000E-002     1.3210529650415113E-015
   2.4375000000000001E-002     3.8715279338773078E-015
   2.4750000000000001E-002     1.1137775916917879E-014
   2.5125000000000001E-002     3.1452246418654201E-014
   2.5500000000000002E-002     8.7183104379155376E-014
   2.5875000000000002E-002     2.3720639416399925E-013
   2.6250000000000002E-002     6.3345894654184403E-013
   2.6625000000000003E-002     1.6603419377360333E-012
   2.7000000000000003E-002     4.2711354383540948E-012
   2.7375000000000003E-002     1.0783060726567799E-011
   2.7750000000000004E-002     2.6716213828016470E-011
   2.8125000000000004E-002     6.4956710270102544E-011
   2.8500000000000004E-002     1.5497729709629065E-010
   2.8875000000000005E-002     3.6281400303766668E-010
   2.9250000000000005E-002     8.3339877768361220E-010
   2.9625000000000005E-002     1.8782216375447427E-009
   3.0000000000000006E-002     4.1527621959029698E-009
   3.0375000000000006E-002     9.0074835488957407E-009
   3.0750000000000000E-002     1.9164870520431222E-008
   3.1125000000000000E-002     3.9996039446113081E-008
   3.1500000000000000E-002     8.1864860974173910E-008
   3.1875000000000001E-002     1.6432824278282125E-007
   3.2250000000000001E-002     3.2345668281620745E-007
   3.2625000000000001E-002     6.2425740808662402E-007
   3.3000000000000002E-002     1.1811634168329816E-006
   3.3375000000000002E-002     2.1907502724809143E-006
   3.3750000000000002E-002     3.9825002309255679E-006
   3.4125000000000003E-002     7.0946723242256606E-006
   3.4500000000000003E-002     1.2383794805204368E-005
   3.4875000000000003E-002     2.1175463228291012E-005
   3.5250000000000004E-002     3.5463687828901165E-005
   3.5625000000000004E-002     5.8157342046633021E-005
   3.6000000000000004E-002     9.3365359290348515E-005
   3.6375000000000005E-002     1.4669002785829672E-004
   3.6750000000000005E-002     2.2547711081661047E-004
   3.7125000000000005E-002     3.3894956558372960E-004
   3.7500000000000006E-002     4.9807543904383509E-004
   3.7875000000000006E-002     7.1513069129367835E-004
   3.8250000000000006E-002     1.0026213869295860E-003
   3.8625000000000007E-002     1.3717294402048118E-003
   3.9000000000000000E-002     1.8298461421215840E-003
   3.9375000000000000E-002     2.3776605845757469E-003
   3.9750000000000001E-002     3.0058516513577511E-003
   4.0125000000000001E-002     3.6916424261623382E-003
   4.0500000000000001E-002     4.3963925828901700E-003
   4.0875000000000002E-002     5.0645794658059125E-003
   4.1250000000000002E-002     5.6256610657544719E-003
   4.1625000000000002E-002     5.9983261993311323E-003
   4.2000000000000003E-002     6.0999994154345887E-003
   4.2375000000000003E-002     5.8575450901943195E-003
   4.2750000000000003E-002     5.2220215364494676E-003
   4.3125000000000004E-002     4.1825279974821812E-003
   4.3500000000000004E-002     2.7784248506876347E-003
   4.3875000000000004E-002     1.1026549381051368E-003
   4.4250000000000005E-002    -6.9561417203558391E-004
   4.4625000000000005E-002    -2.4318683456666006E-003
   4.5000000000000005E-002    -3.9045495902294385E-003
   4.5375000000000006E-002    -4.9289787084953922E-003
   4.5750000000000006E-002    -5.3789627951676714E-003
   4.6125000000000006E-002    -5.2158219169684394E-003
   4.6500000000000007E-002    -4.5206515577482214E-003
   4.6875000000000007E-002    -3.5011269389620334E-003
   4.7250000000000000E-002    -2.4814427883901704E-003
   4.7625000000000001E-002    -1.8692030737757310E-003
   4.8000000000000001E-002    -2.1010619869974035E-003
   4.8375000000000001E-002    -3.5746307100449470E-003
   4.8750000000000002E-002    -6.5734767530422084E-003
   4.9125000000000002E-002    -1.1213957509367552E-002
   4.9500000000000002E-002    -1.7383757513907354E-002
   4.9875000000000003E-002    -2.4754770260544054E-002
   5.0250000000000003E-002    -3.2771431073885346E-002
   5.0625000000000003E-002    -4.0732378408914062E-002
   5.1000000000000004E-002    -4.7848613484918423E-002
   5.1375000000000004E-002    -5.3352142561240851E-002
   5.1750000000000004E-002    -5.6573322620424860E-002
   5.2125000000000005E-002    -5.7036926751619171E-002
   5.2500000000000005E-002    -5.4507997362074616E-002
   5.2875000000000005E-002    -4.9009162973166098E-002
   5.3250000000000006E-002    -4.0822872666191459E-002
   5.3625000000000006E-002    -3.0428081244753130E-002
   5.4000000000000006E-002    -1.8448705428510792E-002
   5.4375000000000007E-002    -5.5664284006878900E-003
   5.4750000000000007E-002     7.5443296202178066E-003
   5.5125000000000007E-002     2.0300638994718189E-002
   5.5500000000000008E-002     3.2228760912005022E-002
   5.5875000000000008E-002     4.3015016870247093E-002
   5.6250000000000008E-002     5.2477602343738911E-002
   5.6625000000000009E-002     6.0562758003700534E-002
   5.7000000000000009E-002     6.7310245594961737E-002
   5.7375000000000009E-002     7.2801849752570355E-002
   5.7750000000000010E-002     7.7145619984679545E-002
   5.8125000000000010E-002     8.0430664844498845E-002
   5.8500000000000010E-002     8.2738201643157122E-002
   5.8875000000000011E-002     8.4101823263368139E-002
   5.9250000000000011E-002     8.4554304165414068E-002
   5.9624999999999997E-002     8.4103247082322474E-002
   5.9999999999999998E-002     8.2751219638341256E-002
   6.0374999999999998E-002     8.0504807278588511E-002
   6.0749999999999998E-002     7.7341579072362915E-002
   6.1124999999999999E-002     7.3224266746674149E-002
   6.1499999999999999E-002     6.8048738375191986E-002
   6.1874999999999999E-002     6.1661261829693892E-002
   6.2250000000000000E-002     5.3827253163926614E-002
   6.2625000000000000E-002     4.4277743823913189E-002
   6.3000000000000000E-002     3.2720091106909273E-002
   6.3375000000000001E-002     1.8931652802802235E-002
   6.3750000000000001E-002     2.8016406569249279E-003
   6.4125000000000001E-002    -1.5554617333353594E-002
   6.4500000000000002E-002    -3.5749001300336987E-002
   6.4875000000000002E-002    -5.7125461680666817E-002
   6.5250000000000002E-002    -7.8683326084297664E-002
   6.5625000000000003E-002    -9.9216620562194990E-002
   6.6000000000000003E-002   -0.11738664265771420     
   6.6375000000000003E-002   -0.13183279702452022     
   6.6750000000000004E-002   -0.14136348104235533     
   6.7125000000000004E-002   -0.14505876363683901     
   6.7500000000000004E-002   -0.14240991471775105     
   6.7875000000000005E-002   -0.13336867385005691     
   6.8250000000000005E-002   -0.11836146009248932     
   6.8625000000000005E-002    -9.8256048313416444E-002
   6.9000000000000006E-002    -7.4240257632683937E-002
   6.9375000000000006E-002    -4.7746152299752237E-002
   6.9750000000000006E-002    -2.0291908349863282E-002
   7.0125000000000007E-002     6.6512324636775070E-003
   7.0500000000000007E-002     3.1701723361859807E-002
   7.0875000000000007E-002     5.3695935302075670E-002
   7.1250000000000008E-002     7.1673352721978015E-002
   7.1625000000000008E-002     8.4897270976898087E-002
   7.2000000000000008E-002     9.2856077371442830E-002
   7.2375000000000009E-002     9.5225383391334142E-002
   7.2750000000000009E-002     9.1888877884373527E-002
   7.3125000000000009E-002     8.2907645724905540E-002
   7.3500000000000010E-002     6.8576088999741824E-002
   7.3875000000000010E-002     4.9421849760066180E-002
   7.4250000000000010E-002     2.6209268716107063E-002
   7.4625000000000011E-002    -2.0423364077072192E-005
   7.5000000000000011E-002    -2.7967514067437221E-002
   7.5375000000000011E-002    -5.6187712745450043E-002
   7.5750000000000012E-002    -8.3039091428383754E-002
   7.6124999999999998E-002   -0.10691319042640016     
   7.6499999999999999E-002   -0.12629083955896939     
   7.6874999999999999E-002   -0.13983996401477672     
   7.7249999999999999E-002   -0.14660204218951628     
   7.7625000000000000E-002   -0.14601546547202715     
   7.8000000000000000E-002   -0.13799765692988764     
   7.8375000000000000E-002   -0.12296549968577491     
   7.8750000000000001E-002   -0.10175045778205205     
   7.9125000000000001E-002    -7.5566879038814205E-002
   7.9500000000000001E-002    -4.5873871409656333E-002
   7.9875000000000002E-002    -1.4194890229592593E-002
   8.0250000000000002E-002     1.7930046227827245E-002
   8.0625000000000002E-002     4.9163988774489333E-002
   8.1000000000000003E-002     7.8410822661084428E-002
   8.1375000000000003E-002    0.10485823483190293     
   8.1750000000000003E-002    0.12798710039059782     
   8.2125000000000004E-002    0.14751195570832898     
   8.2500000000000004E-002    0.16326630659909352     
   8.2875000000000004E-002    0.17512725012795730     
   8.3250000000000005E-002    0.18291184613349457     
   8.3625000000000005E-002    0.18625898652080800     
   8.4000000000000005E-002    0.18472241664183206     
   8.4375000000000006E-002    0.17768665774402795     
   8.4750000000000006E-002    0.16454210438446526     
   8.5125000000000006E-002    0.14482404048239414     
   8.5500000000000007E-002    0.11832091391021740     
   8.5875000000000007E-002     8.5329610240516635E-002
   8.6250000000000007E-002     4.6682822583364751E-002
   8.6625000000000008E-002     3.8846030224190965E-003
   8.7000000000000008E-002    -4.0935690627626045E-002
   8.7375000000000008E-002    -8.5114800974114890E-002
   8.7750000000000009E-002   -0.12563581690389608     
   8.8125000000000009E-002   -0.15941176606095320     
   8.8500000000000009E-002   -0.18356559139631839     
   8.8875000000000010E-002   -0.19573216671924543     
   8.9250000000000010E-002   -0.19440784779463374     
   8.9625000000000010E-002   -0.17912028837834298     
   9.0000000000000011E-002   -0.15062149167391370     
   9.0375000000000011E-002   -0.11090607764532337     
   9.0750000000000011E-002    -6.3040103175006551E-002
   9.1125000000000012E-002    -1.1037279061659189E-002
   9.1500000000000012E-002     4.0583245428594074E-002
   9.1875000000000012E-002     8.7236036566012934E-002
   9.2250000000000013E-002    0.12467414676010463     
   9.2624999999999999E-002    0.14953619832805229     
   9.2999999999999999E-002    0.15966090091984980     
   9.3375000000000000E-002    0.15435010749487402     
   9.3750000000000000E-002    0.13451393390007993     
   9.4125000000000000E-002    0.10249569437790002     
   9.4500000000000001E-002     6.1880401720696254E-002
   9.4875000000000001E-002     1.7025565710026353E-002
   9.5250000000000001E-002    -2.7375626165231901E-002
   9.5625000000000002E-002    -6.6816829410242098E-002
   9.6000000000000002E-002    -9.7557737478531317E-002
   9.6375000000000002E-002   -0.11683780748966457     
   9.6750000000000003E-002   -0.12330950600780802     
   9.7125000000000003E-002   -0.11701638294980776     
   9.7500000000000003E-002    -9.9347475848487493E-002
   9.7875000000000004E-002    -7.2881711220917661E-002
   9.8250000000000004E-002    -4.1031539300127873E-002
   9.8625000000000004E-002    -7.6138431166535899E-003
   9.9000000000000005E-002     2.3493865337965797E-002
   9.9375000000000005E-002     4.8798099721175187E-002
   9.9750000000000005E-002     6.5626381649199469E-002
  0.10012500000000001          7.2254941033826903E-002
  0.10050000000000001          6.8240859871263063E-002
  0.10087500000000001          5.4300106986726764E-002
  0.10125000000000001          3.2298650305848130E-002
  0.10162500000000001          4.9849928538011068E-003
  0.10200000000000001         -2.4396653227443724E-002
  0.10237500000000001         -5.2385000022991138E-002
  0.10275000000000001         -7.5899025897938399E-002
  0.10312500000000001         -9.2334866313509220E-002
  0.10350000000000001        -0.10008741623044960     
  0.10387500000000001         -9.8450983614323972E-002
  0.10425000000000001         -8.7746443042629338E-002
  0.10462500000000001         -6.9147756639813526E-002
  0.10500000000000001         -4.4410007371197290E-002
  0.10537500000000001         -1.5707503816958606E-002
  0.10575000000000001          1.4723377930484713E-002
  0.10612500000000001          4.4683258019138111E-002
  0.10650000000000001          7.2247799476079039E-002
  0.10687500000000001          9.5750236593835608E-002
  0.10725000000000001         0.11384361378067964     
  0.10762500000000001         0.12547729188814949     
  0.10800000000000001         0.12983646097063578     
  0.10837500000000001         0.12649110774826064     
  0.10875000000000001         0.11518929968704467     
  0.10912500000000000          9.6200366951934235E-002
  0.10950000000000000          7.0166427775713247E-002
  0.10987500000000000          3.8224658022590195E-002
  0.11025000000000000          2.0731347468589678E-003
  0.11062500000000001         -3.6191426965018744E-002
  0.11100000000000000         -7.4160201912706170E-002
  0.11137500000000002        -0.10919152123259804     
  0.11175000000000000        -0.13876976906119853     
  0.11212500000000002        -0.16064912483548113     
  0.11250000000000000        -0.17303781531633311     
  0.11287500000000002        -0.17482699105137356     
  0.11325000000000000        -0.16565278130233688     
  0.11362500000000002        -0.14591919749795801     
  0.11400000000000000        -0.11682298945102554     
  0.11437500000000002         -8.0184924880094627E-002
  0.11475000000000000         -3.8365608545893826E-002
  0.11512500000000002          5.9216064856972145E-003
  0.11550000000000001          4.9769710004678010E-002
  0.11587500000000002          9.0295507626353605E-002
  0.11625000000000001         0.12478767900262108     
  0.11662500000000002         0.15084950162816504     
  0.11700000000000001         0.16661121436766640     
  0.11737499999999999         0.17088662744406635     
  0.11775000000000001         0.16316568171635076     
  0.11812499999999999         0.14397723045691252     
  0.11850000000000001         0.11465594710478424     
  0.11887499999999999          7.7530697339168148E-002
  0.11925000000000001          3.5748621093654814E-002
  0.11962500000000000         -6.9214484103717619E-003
  0.12000000000000001         -4.6419718786303583E-002
  0.12037500000000000         -7.8742903062401365E-002
  0.12075000000000001        -0.10040107454498585     
  0.12112500000000000        -0.10883118510715468     
  0.12150000000000001        -0.10277063978408288     
  0.12187500000000000         -8.2421631699244283E-002
  0.12225000000000001         -4.9582134762764463E-002
  0.12262500000000000         -7.4186883345301585E-003
  0.12300000000000001          3.9859444153587165E-002
  0.12337500000000000          8.7358167087585023E-002
  0.12375000000000001         0.13027207843161856     
  0.12412500000000000         0.16420683709569972     
  0.12450000000000001         0.18580025497969441     
  0.12487500000000000         0.19301823037886881     
  0.12525000000000003         0.18524036723802126     
  0.12562499999999999         0.16337852298661965     
  0.12600000000000000         0.12951186020171090     
  0.12637500000000002          8.6623783708803928E-002
  0.12675000000000003          3.8253604859345876E-002
  0.12712499999999999         -1.2047408016096080E-002
  0.12750000000000000         -6.0953177042294013E-002
  0.12787500000000002        -0.10584002686021066     
  0.12825000000000003        -0.14482436588801265     
  0.12862499999999999        -0.17699882397864758     
  0.12900000000000000        -0.20227390372717327     
  0.12937500000000002        -0.22141936250925692     
  0.12975000000000003        -0.23567965301460642     
  0.13012499999999999        -0.24667850485496656     
  0.13050000000000000        -0.25600749100402509     
  0.13087500000000002        -0.26495122025013174     
  0.13125000000000003        -0.27437058753326754     
  0.13162499999999999        -0.28426556540739256     
  0.13200000000000001        -0.29395560707626722     
  0.13237500000000002        -0.30176724579376135     
  0.13275000000000003        -0.30537552917736438     
  0.13312499999999999        -0.30181488318216776     
  0.13350000000000001        -0.28777850417389367     
  0.13387500000000002        -0.25998881540279256     
  0.13424999999999998        -0.21549568016126364     
  0.13462499999999999        -0.15207722875700447     
  0.13500000000000001         -6.8645427166561759E-002
  0.13537500000000002          3.4475332398330269E-002
  0.13574999999999998         0.15526193940203042     
  0.13612500000000000         0.28980724873377983     
  0.13650000000000001         0.43242613184246054     
  0.13687500000000002         0.57578746359685984     
  0.13724999999999998         0.71123061697933121     
  0.13762500000000000         0.82950561815531698     
  0.13800000000000001         0.92131638658285109     
  0.13837500000000003         0.97830901626235578     
  0.13874999999999998         0.99375628740493394     
  0.13912500000000000         0.96333668718235455     
  0.13950000000000001         0.88565732367753625     
  0.13987500000000003         0.76248615968967837     
  0.14024999999999999         0.59860414625123126     
  0.14062500000000000         0.40157523673479006     
  0.14100000000000001         0.18092880225989369     
  0.14137500000000003         -5.2414503493631096E-002
  0.14174999999999999        -0.28706702864025191     
  0.14212500000000000        -0.51185362903140696     
  0.14250000000000002        -0.71638448879984584     
  0.14287500000000003        -0.89136385867798296     
  0.14324999999999999         -1.0288880965049414     
  0.14362500000000000         -1.1225831149028029     
  0.14400000000000002         -1.1676102925418568     
  0.14437500000000003         -1.1609198086684072     
  0.14474999999999999         -1.1015337127156086     
  0.14512500000000000        -0.99082081572981617     
  0.14550000000000002        -0.83294594936955835     
  0.14587500000000003        -0.63518337860476437     
  0.14624999999999999        -0.40781750579216247     
  0.14662500000000001        -0.16389381457297122     
  0.14700000000000002          8.1235576684706073E-002
  0.14737500000000003         0.31134305362373493     
  0.14774999999999999         0.51059802801167642     
  0.14812500000000001         0.66490374494345128     
  0.14850000000000002         0.76378656428954894     
  0.14887500000000004         0.80112939417563167     
  0.14924999999999999         0.77626756950410036     
  0.14962500000000001         0.69409436504185396     
  0.15000000000000002         0.56433031201996453     
  0.15037499999999998         0.40085832169187868     
  0.15075000000000000         0.21997761838806762     
  0.15112500000000001          3.8697133914964960E-002
  0.15150000000000002        -0.12667066795635512     
  0.15187499999999998        -0.26270633811526939     
  0.15225000000000000        -0.35952583426923090     
  0.15262500000000001        -0.41160947355600352     
  0.15300000000000002        -0.41831230464628966     
  0.15337499999999998        -0.38294488387073611     
  0.15375000000000000        -0.31266580050423592     
  0.15412500000000001        -0.21681496332909983     
  0.15450000000000003        -0.10600920052672097     
  0.15487499999999998          9.0671779479278222E-003
  0.15525000000000000         0.11892049613417174     
  0.15562500000000001         0.21567695423674713     
  0.15600000000000003         0.29395864637071289     
  0.15637499999999999         0.35060710693849573     
  0.15675000000000000         0.38453180378963903     
  0.15712500000000001         0.39660794808653399     
  0.15750000000000003         0.38859527844189479     
  0.15787499999999999         0.36295286128798909     
  0.15825000000000000         0.32243680086702120     
  0.15862500000000002         0.26942552927406843     
  0.15900000000000003         0.20622024658600416     
  0.15937499999999999         0.13518371021470488     
  0.15975000000000000          5.8438393516730969E-002
  0.16012500000000002         -2.1314518087728784E-002
  0.16050000000000003        -0.10084154041638288     
  0.16087499999999999        -0.17641335186021653     
  0.16125000000000000        -0.24374106751516456     
  0.16162500000000002        -0.29850781519211589     
  0.16200000000000003        -0.33649458262138354     
  0.16237499999999999        -0.35456357838027019     
  0.16275000000000001        -0.35076853516712975     
  0.16312500000000002        -0.32482616180785462     
  0.16350000000000003        -0.27873715910569147     
  0.16387499999999999        -0.21589349040757566     
  0.16425000000000001        -0.14145560737323026     
  0.16462500000000002         -6.1602599440932562E-002
  0.16500000000000004          1.7336205199926812E-002
  0.16537499999999999          8.9258793965752037E-002
  0.16575000000000001         0.14905250827599151     
  0.16612500000000002         0.19304190468595400     
  0.16650000000000004         0.21899992029808862     
  0.16687500000000000         0.22637038319780656     
  0.16725000000000001         0.21605986727899418     
  0.16762500000000002         0.18987619163676561     
  0.16799999999999998         0.15065246758053319     
  0.16837500000000000         0.10162660574966216     
  0.16875000000000001          4.6536548276458055E-002
  0.16912500000000003         -1.0720402791533312E-002
  0.16949999999999998         -6.6164897670395406E-002
  0.16987500000000000        -0.11573801426571173     
  0.17025000000000001        -0.15555355361737844     
  0.17062500000000003        -0.18215315449700609     
  0.17099999999999999        -0.19307012680360458     
  0.17137500000000000        -0.18678453147359447     
  0.17175000000000001        -0.16353856981205600     
  0.17212500000000003        -0.12515660685155738     
  0.17249999999999999         -7.5258971045823631E-002
  0.17287500000000000         -1.8924262955952099E-002
  0.17325000000000002          3.7977846844997054E-002
  0.17362500000000003          8.9329317797799554E-002
  0.17399999999999999         0.12963880286377200     
  0.17437500000000000         0.15469687424314243     
  0.17475000000000002         0.16235299339510550     
  0.17512500000000003         0.15262868760792522     
  0.17549999999999999         0.12760635507492260     
  0.17587500000000000          9.1356855608876755E-002
  0.17625000000000002          4.8840146831613238E-002
  0.17662500000000003          5.5734844191520638E-003
  0.17699999999999999         -3.3424605599263524E-002
  0.17737500000000000         -6.4390010883084908E-002
  0.17775000000000002         -8.5051287634006087E-002
  0.17812500000000003         -9.4812290817990863E-002
  0.17849999999999999         -9.4912784849218043E-002
  0.17887500000000001         -8.7482560396431347E-002
  0.17925000000000002         -7.5582165594405185E-002
  0.17962500000000003         -6.2339387016819570E-002
  0.17999999999999999         -5.0022674517933866E-002
  0.18037500000000001         -4.0681957600690800E-002
  0.18075000000000002         -3.4840082019069671E-002
  0.18112500000000004         -3.2353658943938574E-002
  0.18149999999999999         -3.2201537253432833E-002
  0.18187500000000001         -3.2904586943393460E-002
  0.18225000000000002         -3.3035803203374320E-002
  0.18262500000000004         -3.1278240415580583E-002
  0.18300000000000000         -2.6736819861972662E-002
  0.18337500000000001         -1.9103997984109135E-002
  0.18375000000000002         -8.6028615515852183E-003
  0.18412499999999998          4.2361201522579826E-003
  0.18450000000000000          1.8431346727969578E-002
  0.18487500000000001          3.3374843302330238E-002
  0.18525000000000003          4.7982168268792397E-002
  0.18562499999999998          6.1693194331687323E-002
  0.18600000000000000          7.4050998551005540E-002
  0.18637500000000001          8.4538344530352819E-002
  0.18675000000000003          9.3054787091758767E-002
  0.18712499999999999          9.9181872146518635E-002
  0.18750000000000000         0.10259706451249626     
  0.18787500000000001         0.10311490563709738     
  0.18825000000000003         0.10033098534560023     
  0.18862499999999999          9.4021499275565024E-002
  0.18900000000000000          8.4287746654206991E-002