  -1.4999999999999999E-002     0.0000000000000000     
  -1.4624999999999999E-002     0.0000000000000000     
  -1.4249999999999999E-002     0.0000000000000000     
  -1.3874999999999998E-002     0.0000000000000000     
  -1.3500000000000000E-002     0.0000000000000000     
  -1.3125000000000000E-002     0.0000000000000000     
  -1.2749999999999999E-002     0.0000000000000000     
  -1.2374999999999999E-002     0.0000000000000000     
  -1.2000000000000000E-002     0.0000000000000000     
  -1.1625000000000000E-002     0.0000000000000000     
  -1.1250000000000000E-002     0.0000000000000000     
  -1.0874999999999999E-002     0.0000000000000000     
  -1.0499999999999999E-002     0.0000000000000000     
  -1.0124999999999999E-002     0.0000000000000000     
  -9.7499999999999983E-003     0.0000000000000000     
  -9.3749999999999979E-003     0.0000000000000000     
  -8.9999999999999993E-003     0.0000000000000000     
  -8.6249999999999990E-003     0.0000000000000000     
  -8.2500000000000004E-003     0.0000000000000000     
  -7.8750000000000001E-003     0.0000000000000000     
  -7.4999999999999989E-003     0.0000000000000000     
  -7.1249999999999994E-003     0.0000000000000000     
  -6.7499999999999991E-003     0.0000000000000000     
  -6.3749999999999987E-003     0.0000000000000000     
  -5.9999999999999984E-003     0.0000000000000000     
  -5.6249999999999998E-003     0.0000000000000000     
  -5.2499999999999995E-003     0.0000000000000000     
  -4.8749999999999991E-003     0.0000000000000000     
  -4.4999999999999988E-003     0.0000000000000000     
  -4.1249999999999985E-003     0.0000000000000000     
  -3.7499999999999981E-003     0.0000000000000000     
  -3.3749999999999995E-003     0.0000000000000000     
  -2.9999999999999992E-003     0.0000000000000000     
  -2.6249999999999989E-003     0.0000000000000000     
  -2.2499999999999985E-003     0.0000000000000000     
  -1.8749999999999982E-003     0.0000000000000000     
  -1.4999999999999996E-003     0.0000000000000000     
  -1.1249999999999993E-003     0.0000000000000000     
  -7.4999999999999893E-004     0.0000000000000000     
  -3.7499999999999860E-004     0.0000000000000000     
   1.7347234759768071E-018     0.0000000000000000     
   3.7500000000000207E-004     0.0000000000000000     
   7.5000000000000067E-004     0.0000000000000000     
   1.1250000000000010E-003     0.0000000000000000     
   1.5000000000000013E-003     0.0000000000000000     
   1.8750000000000017E-003     0.0000000000000000     
   2.2500000000000020E-003     0.0000000000000000     
   2.6250000000000023E-003     0.0000000000000000     
   3.0000000000000027E-003     0.0000000000000000     
   3.3750000000000030E-003     0.0000000000000000     
   3.7499999999999999E-003     0.0000000000000000     
   4.1250000000000002E-003     0.0000000000000000     
   4.5000000000000005E-003     0.0000000000000000     
   4.8750000000000009E-003     0.0000000000000000     
   5.2500000000000012E-003     0.0000000000000000     
   5.6250000000000015E-003     0.0000000000000000     
   6.0000000000000019E-003     0.0000000000000000     
   6.3750000000000022E-003     0.0000000000000000     
   6.7500000000000025E-003     0.0000000000000000     
   7.1250000000000029E-003     0.0000000000000000     
   7.5000000000000032E-003     0.0000000000000000     
   7.8750000000000001E-003     0.0000000000000000     
   8.2500000000000004E-003     0.0000000000000000     
   8.6250000000000007E-003     0.0000000000000000     
   9.0000000000000011E-003     0.0000000000000000     
   9.3750000000000014E-003     0.0000000000000000     
   9.7500000000000017E-003     0.0000000000000000     
   1.0125000000000002E-002     0.0000000000000000     
   1.0500000000000002E-002     0.0000000000000000     
   1.0875000000000003E-002     0.0000000000000000     
   1.1250000000000003E-002     0.0000000000000000     
   1.1625000000000003E-002     0.0000000000000000     
   1.2000000000000000E-002     0.0000000000000000     
   1.2375000000000001E-002     0.0000000000000000     
   1.2750000000000001E-002     0.0000000000000000     
   1.3125000000000001E-002     0.0000000000000000     
   1.3500000000000002E-002     0.0000000000000000     
   1.3875000000000002E-002     0.0000000000000000     
   1.4250000000000002E-002     0.0000000000000000     
   1.4625000000000003E-002     0.0000000000000000     
   1.5000000000000003E-002     0.0000000000000000     
   1.5375000000000003E-002     0.0000000000000000     
   1.5750000000000004E-002     0.0000000000000000     
   1.6125000000000000E-002     0.0000000000000000     
   1.6500000000000001E-002    -6.9297662690427555E-051
   1.6875000000000001E-002     9.0032051457210389E-049
   1.7250000000000001E-002    -1.6813212169253034E-035
   1.7625000000000002E-002    -4.2083319548962491E-034
   1.8000000000000002E-002    -4.7361892421192787E-033
   1.8375000000000002E-002     6.3148260930542643E-033
   1.8750000000000003E-002     3.2610219911399097E-031
   1.9125000000000003E-002     1.7364463107275271E-031
   1.9500000000000003E-002    -1.1712195680524246E-029
   1.9875000000000004E-002     2.7350725281075743E-029
   2.0250000000000004E-002     1.8223259439817634E-028
   2.0625000000000004E-002    -1.5523457112048396E-027
   2.1000000000000005E-002     6.0042069604038399E-027
   2.1375000000000005E-002    -1.6037879057313295E-026
   2.1750000000000005E-002     3.2568822324328056E-026
   2.2125000000000006E-002    -6.8077598821697591E-026
   2.2499999999999999E-002     2.2191651149314133E-024
   2.2875000000000000E-002     6.3756605318112745E-024
   2.3250000000000000E-002     2.6362602950717934E-023
   2.3625000000000000E-002     9.8147664173797466E-023
   2.4000000000000000E-002     3.6881625559496874E-022
   2.4375000000000001E-002     1.3542720096449392E-021
   2.4750000000000001E-002     4.8844656838133787E-021
   2.5125000000000001E-002     1.7299167348991795E-020
   2.5500000000000002E-002     6.0152187994400772E-020
   2.5875000000000002E-002     2.0536071999560402E-019
   2.6250000000000002E-002     6.8835514887257880E-019
   2.6625000000000003E-002     2.2653127876807548E-018
   2.7000000000000003E-002     7.3190783276956363E-018
   2.7375000000000003E-002     2.3216340761386012E-017
   2.7750000000000004E-002     7.2298237418321917E-017
   2.8125000000000004E-002     2.2102927360178763E-016
   2.8500000000000004E-002     6.6336355151249420E-016
   2.8875000000000005E-002     1.9544512147795570E-015
   2.9250000000000005E-002     5.6527248402211713E-015
   2.9625000000000005E-002     1.6048563454196456E-014
   3.0000000000000006E-002     4.4725701872503846E-014
   3.0375000000000006E-002     1.2234821363376062E-013
   3.0750000000000000E-002     3.2851487191650324E-013
   3.1125000000000000E-002     8.6578201686084472E-013
   3.1500000000000000E-002     2.2394715005833114E-012
   3.1875000000000001E-002     5.6852886534150244E-012
   3.2250000000000001E-002     1.4164856946692005E-011
   3.2625000000000001E-002     3.4634137603945585E-011
   3.3000000000000002E-002     8.3103145062427581E-011
   3.3375000000000002E-002     1.9566966404307504E-010
   3.3750000000000002E-002     4.5206880972608911E-010
   3.4125000000000003E-002     1.0248078590953383E-009
   3.4500000000000003E-002     2.2793113090251204E-009
   3.4875000000000003E-002     4.9736131712132498E-009
   3.5250000000000004E-002     1.0646662125749175E-008
   3.5625000000000004E-002     2.2356345125266818E-008
   3.6000000000000004E-002     4.6046889731106618E-008
   3.6375000000000005E-002     9.3020274560126884E-008
   3.6750000000000005E-002     1.8428722365973938E-007
   3.7125000000000005E-002     3.5802220915917998E-007
   3.7500000000000006E-002     6.8199450074154479E-007
   3.7875000000000006E-002     1.2736682026295977E-006
   3.8250000000000006E-002     2.3317643799687828E-006
   3.8625000000000007E-002     4.1841388220851708E-006
   3.9000000000000000E-002     7.3579760836483091E-006
   3.9375000000000000E-002     1.2678603927674244E-005
   3.9750000000000001E-002     2.1402427342446677E-005
   4.0125000000000001E-002     3.5387797309273358E-005
   4.0500000000000001E-002     5.7297871420873385E-005
   4.0875000000000002E-002     9.0827946438240811E-005
   4.1250000000000002E-002     1.4091724879321810E-004
   4.1625000000000002E-002     2.1391738345037458E-004
   4.2000000000000003E-002     3.1761352344550001E-004
   4.2375000000000003E-002     4.6107255526087827E-004
   4.2750000000000003E-002     6.5405121172648173E-004
   4.3125000000000004E-002     9.0623589605717120E-004
   4.3500000000000004E-002     1.2256004181334015E-003
   4.3875000000000004E-002     1.6166571037491025E-003
   4.4250000000000005E-002     2.0782046558765104E-003
   4.4625000000000005E-002     2.6005700216498368E-003
   4.5000000000000005E-002     3.1640043758141096E-003
   4.5375000000000006E-002     3.7365574850038823E-003
   4.5750000000000006E-002     4.2750465275514862E-003
   4.6125000000000006E-002     4.7262272201658252E-003
   4.6500000000000007E-002     5.0319811329310425E-003
   4.6875000000000007E-002     5.1355427257049630E-003
   4.7250000000000000E-002     4.9919736960921737E-003
   4.7625000000000001E-002     4.5749336927687345E-003
   4.8000000000000001E-002     3.8895176021314969E-003
   4.8375000000000001E-002     2.9750190324943165E-003
   4.8750000000000002E-002     1.9081925196880144E-003
   4.9125000000000002E-002     7.9788964118486961E-004
   4.9500000000000002E-002    -2.2946611639393486E-004
   4.9875000000000003E-002    -1.0467085031237132E-003
   5.0250000000000003E-002    -1.5509201766489328E-003
   5.0625000000000003E-002    -1.6892994445593804E-003
   5.1000000000000004E-002    -1.4773784768800646E-003
   5.1375000000000004E-002    -1.0138254436661946E-003
   5.1750000000000004E-002    -4.7940943668999068E-004
   5.2125000000000005E-002    -1.2095080625567403E-004
   5.2500000000000005E-002    -2.2399743573136058E-004
   5.2875000000000005E-002    -1.0657581996926934E-003
   5.3250000000000006E-002    -2.8767644593221840E-003
   5.3625000000000006E-002    -5.7900666641837991E-003
   5.4000000000000006E-002    -9.8020042201136560E-003
   5.4375000000000007E-002    -1.4766277408242490E-002
   5.4750000000000007E-002    -2.0381085240112579E-002
   5.5125000000000007E-002    -2.6225039389480256E-002
   5.5500000000000008E-002    -3.1796018377640581E-002
   5.5875000000000008E-002    -3.6564748433299987E-002
   5.6250000000000008E-002    -4.0045701074411841E-002
   5.6625000000000009E-002    -4.1841851798266917E-002
   5.7000000000000009E-002    -4.1696272697490981E-002
   5.7375000000000009E-002    -3.9515253619021300E-002
   5.7750000000000010E-002    -3.5369043646909785E-002
   5.8125000000000010E-002    -2.9477774362780117E-002
   5.8500000000000010E-002    -2.2173321981976440E-002
   5.8875000000000011E-002    -1.3869015285872997E-002
   5.9250000000000011E-002    -4.9889858311865714E-003
   5.9624999999999997E-002     4.0351753130277420E-003
   5.9999999999999998E-002     1.2836946183038940E-002
   6.0374999999999998E-002     2.1099281270422460E-002
   6.0749999999999998E-002     2.8566304925463755E-002
   6.1124999999999999E-002     3.5067448248839610E-002
   6.1499999999999999E-002     4.0444778096023974E-002
   6.1874999999999999E-002     4.4597429777701605E-002
   6.2250000000000000E-002     4.7428308380489455E-002
   6.2625000000000000E-002     4.8850055726908759E-002
   6.3000000000000000E-002     4.8791229053301244E-002
   6.3375000000000001E-002     4.7201064304601574E-002
   6.3750000000000001E-002     4.4079297316535572E-002
   6.4125000000000001E-002     3.9492022142936130E-002
   6.4500000000000002E-002     3.3616593641196742E-002
   6.4875000000000002E-002     2.6742096546333003E-002
   6.5250000000000002E-002     1.9300730236523470E-002
   6.5625000000000003E-002     1.1825688897950996E-002
   6.6000000000000003E-002     4.9700458856024726E-003
   6.6375000000000003E-002    -6.2010110840809768E-004
   6.6750000000000004E-002    -4.3019145223468034E-003
   6.7125000000000004E-002    -5.5782343895368278E-003
   6.7500000000000004E-002    -4.1662241868129684E-003
   6.7875000000000005E-002    -4.3034884634669725E-005
   6.8250000000000005E-002     6.4544113995996192E-003
   6.8625000000000005E-002     1.4689697143222094E-002
   6.9000000000000006E-002     2.3698265488837161E-002
   6.9375000000000006E-002     3.2331757088821633E-002
   6.9750000000000006E-002     3.9348463554916967E-002
   7.0125000000000007E-002     4.3552218395075178E-002
   7.0500000000000007E-002     4.4010966840634519E-002
   7.0875000000000007E-002     4.0109094300275330E-002
   7.1250000000000008E-002     3.1726293939479622E-002
   7.1625000000000008E-002     1.9257833946293913E-002
   7.2000000000000008E-002     3.5851980902368037E-003
   7.2375000000000009E-002    -1.3985361985881035E-002
   7.2750000000000009E-002    -3.1853327170062756E-002
   7.3125000000000009E-002    -4.8346275661766983E-002
   7.3500000000000010E-002    -6.1867548422180174E-002
   7.3875000000000010E-002    -7.1104244742983727E-002
   7.4250000000000010E-002    -7.5196104421461546E-002
   7.4625000000000011E-002    -7.3773950280864864E-002
   7.5000000000000011E-002    -6.7065980122888599E-002
   7.5375000000000011E-002    -5.5776137199109274E-002
   7.5750000000000012E-002    -4.1053393954573955E-002
   7.6124999999999998E-002    -2.4300234890891243E-002
   7.6499999999999999E-002    -7.0168548871241652E-003
   7.6874999999999999E-002     9.3321286154385234E-003
   7.7249999999999999E-002     2.3529397739751413E-002
   7.7625000000000000E-002     3.4621563830305450E-002
   7.8000000000000000E-002     4.2046573797230903E-002
   7.8375000000000000E-002     4.5604749623291793E-002
   7.8750000000000001E-002     4.5412891940046274E-002
   7.9125000000000001E-002     4.1879312448710460E-002
   7.9500000000000001E-002     3.5566897365093129E-002
   7.9875000000000002E-002     2.7151695226493335E-002
   8.0250000000000002E-002     1.7321282054806056E-002
   8.0625000000000002E-002     6.7487070914268778E-003
   8.1000000000000003E-002    -4.0097103532003506E-003
   8.1375000000000003E-002    -1.4445369195985299E-002
   8.1750000000000003E-002    -2.4215958078157459E-002
   8.2125000000000004E-002    -3.3065646449774541E-002
   8.2500000000000004E-002    -4.0876545488128330E-002
   8.2875000000000004E-002    -4.7665913275277659E-002
   8.3250000000000005E-002    -5.3523189312726205E-002
   8.3625000000000005E-002    -5.8703959827215865E-002
   8.4000000000000005E-002    -6.3422828452629129E-002
   8.4375000000000006E-002    -6.7985671409763568E-002
   8.4750000000000006E-002    -7.2585233416325251E-002
   8.5125000000000006E-002    -7.7288724639837922E-002
   8.5500000000000007E-002    -8.2005167448541846E-002
   8.5875000000000007E-002    -8.6372891916317376E-002
   8.6250000000000007E-002    -8.9876606212517779E-002
   8.6625000000000008E-002    -9.1745567049436247E-002
   8.7000000000000008E-002    -9.1151746904575642E-002
   8.7375000000000008E-002    -8.7251557532408708E-002
   8.7750000000000009E-002    -7.9285489152702948E-002
   8.8125000000000009E-002    -6.6723356808314718E-002
   8.8500000000000009E-002    -4.9361073502139918E-002
   8.8875000000000010E-002    -2.7299521840326871E-002
   8.9250000000000010E-002    -1.0409593589560664E-003
   8.9625000000000010E-002     2.8550485950046219E-002
   9.0000000000000011E-002     6.0377057469958327E-002
   9.0375000000000011E-002     9.3032502009396792E-002
   9.0750000000000011E-002    0.12501620426420926     
   9.1125000000000012E-002    0.15473753283277678     
   9.1500000000000012E-002    0.18057923823781388     
   9.1875000000000012E-002    0.20101851262515957     
   9.2250000000000013E-002    0.21464631812843743     
   9.2624999999999999E-002    0.22029608790579400     
   9.2999999999999999E-002    0.21707932227698290     
   9.3375000000000000E-002    0.20452243199337283     
   9.3750000000000000E-002    0.18262719586432147     
   9.4125000000000000E-002    0.15195174896119013     
   9.4500000000000001E-002    0.11362428099247321     
   9.4875000000000001E-002     6.9372882457859220E-002
   9.5250000000000001E-002     2.1409603029572725E-002
   9.5625000000000002E-002    -2.7665237353864766E-002
   9.6000000000000002E-002    -7.5028031386477123E-002
   9.6375000000000002E-002   -0.11788352689898450     
   9.6750000000000003E-002   -0.15364645222029019     
   9.7125000000000003E-002   -0.18016439178967386     
   9.7500000000000003E-002   -0.19594224381365238     
   9.7875000000000004E-002   -0.20020282200820352     
   9.8250000000000004E-002   -0.19299402599597543     
   9.8625000000000004E-002   -0.17516856157083949     
   9.9000000000000005E-002   -0.14827989801750338     
   9.9375000000000005E-002   -0.11444904934281547     
   9.9750000000000005E-002    -7.6185795943912019E-002
  0.10012500000000001         -3.6117768869032882E-002
  0.10050000000000001          3.1457650178211595E-003
  0.10087500000000001          3.9272939384561070E-002
  0.10125000000000001          7.0382726641088689E-002
  0.10162500000000001          9.5048049454062339E-002
  0.10200000000000001         0.11246460621601559     
  0.10237500000000001         0.12236562874553569     
  0.10275000000000001         0.12495168319541819     
  0.10312500000000001         0.12083556246576424     
  0.10350000000000001         0.11091983192429253     
  0.10387500000000001          9.6223215259657241E-002
  0.10425000000000001          7.7875136404674805E-002
  0.10462500000000001          5.6962441693478971E-002
  0.10500000000000001          3.4535503876226975E-002
  0.10537500000000001          1.1559478538202557E-002
  0.10575000000000001         -1.1057980228220819E-002
  0.10612500000000001         -3.2491342861036762E-002
  0.10650000000000001         -5.1952055450212392E-002
  0.10687500000000001         -6.8762125666731205E-002
  0.10725000000000001         -8.2282382610884303E-002
  0.10762500000000001         -9.2053164110552255E-002
  0.10800000000000001         -9.7722160579535977E-002
  0.10837500000000001         -9.9145421834777078E-002
  0.10875000000000001         -9.6338462920939283E-002
  0.10912500000000000         -8.9505183094873514E-002
  0.10950000000000000         -7.8985993309577035E-002
  0.10987500000000000         -6.5218252885732186E-002
  0.11025000000000000         -4.8736113036350281E-002
  0.11062500000000001         -3.0091873605351871E-002
  0.11100000000000000         -9.9084337197347955E-003
  0.11137500000000002          1.1091781909425589E-002
  0.11175000000000000          3.2156716387667490E-002
  0.11212500000000002          5.2294613672583180E-002
  0.11250000000000000          7.0459448804697095E-002
  0.11287500000000002          8.5442707095626097E-002
  0.11325000000000000          9.5994483917715701E-002
  0.11362500000000002         0.10096124937602130     
  0.11400000000000000          9.9394235285757304E-002
  0.11437500000000002          9.0748210250044231E-002
  0.11475000000000000          7.5020197152650542E-002
  0.11512500000000002          5.2824536885152214E-002
  0.11550000000000001          2.5490708822607511E-002
  0.11587500000000002         -5.0663439987833469E-003
  0.11625000000000001         -3.6421844354777660E-002
  0.11662500000000002         -6.5852041023344854E-002
  0.11700000000000001         -9.0669396815985334E-002
  0.11737499999999999        -0.10842766779283222     
  0.11775000000000001        -0.11724675891865510     
  0.11812499999999999        -0.11608922640733396     
  0.11850000000000001        -0.10484791151218233     
  0.11887499999999999         -8.4489083104223067E-002
  0.11925000000000001         -5.6945309048551815E-002
  0.11962500000000000         -2.4982196730623001E-002
  0.12000000000000001          8.1011970981173242E-003
  0.12037500000000000          3.8816728828463168E-002
  0.12075000000000001          6.3921260788394774E-002
  0.12112500000000000          8.0771302935169154E-002
  0.12150000000000001          8.7689017951587123E-002
  0.12187500000000000          8.4195996440759355E-002
  0.12225000000000001          7.1057182077608916E-002
  0.12262500000000000          5.0242745967528035E-002
  0.12300000000000001          2.4636160072653193E-002
  0.12337500000000000         -2.3295043006241719E-003
  0.12375000000000001         -2.7098670952392101E-002
  0.12412500000000000         -4.6502451468303750E-002
  0.12450000000000001         -5.8138274964768678E-002
  0.12487500000000000         -6.0678123866059294E-002
  0.12525000000000003         -5.3957041198985943E-002
  0.12562499999999999         -3.9073803176036537E-002
  0.12600000000000000         -1.8006259641770796E-002
  0.12637500000000002          6.5437726756142978E-003
  0.12675000000000003          3.1557970229937331E-002
  0.12712499999999999          5.4223960903294240E-002
  0.12750000000000000          7.2066587930396706E-002
  0.12787500000000002          8.3440203250926645E-002
  0.12825000000000003          8.7466365498300488E-002
  0.12862499999999999          8.4205134643165258E-002
  0.12900000000000000          7.4422577576186311E-002
  0.12937500000000002          5.9468129731127611E-002
  0.12975000000000003          4.1023490803778984E-002
  0.13012499999999999          2.0755446046113648E-002
  0.13050000000000000          2.3541484098406210E-004
  0.13087500000000002         -1.9308482658240575E-002
  0.13125000000000003         -3.7054592843631488E-002
  0.13162499999999999         -5.2474754567762925E-002
  0.13200000000000001         -6.5280590117107476E-002
  0.13237500000000002         -7.5314552520988898E-002
  0.13275000000000003         -8.2257350988560324E-002
  0.13312499999999999         -8.5711610444404507E-002
  0.13350000000000001         -8.5044292563284066E-002
  0.13387500000000002         -7.9496322865876809E-002
  0.13424999999999998         -6.8443843450417902E-002
  0.13462499999999999         -5.1472322717013644E-002
  0.13500000000000001         -2.8762380865372458E-002
  0.13537500000000002         -1.2344644817697419E-003
  0.13574999999999998          2.9444324389840348E-002
  0.13612500000000000          6.0697930805916990E-002
  0.13650000000000001          8.9494307416890281E-002
  0.13687500000000002         0.11251068498534889     
  0.13724999999999998         0.12660662474599968     
  0.13762500000000000         0.12934202681917054     
  0.13800000000000001         0.11928375837743568     
  0.13837500000000003          9.6377572575014309E-002
  0.13874999999999998          6.2019442032840030E-002
  0.13912500000000000          1.8965237146386676E-002
  0.13950000000000001         -2.8920168745125978E-002
  0.13987500000000003         -7.7050826282834897E-002
  0.14024999999999999        -0.12074442132901143     
  0.14062500000000000        -0.15562353945076871     
  0.14100000000000001        -0.17819889094531147     
  0.14137500000000003        -0.18623481188843094     
  0.14174999999999999        -0.17885644277934432     
  0.14212500000000000        -0.15682647565603902     
  0.14250000000000002        -0.12217317519342760     
  0.14287500000000003         -7.8090081955593971E-002
  0.14324999999999999         -2.8522965499867631E-002
  0.14362500000000000          2.2301137332000041E-002
  0.14400000000000002          7.0190386761623147E-002
  0.14437500000000003         0.11158518532866767     
  0.14474999999999999         0.14353613783913266     
  0.14512500000000000         0.16432617025966495     
  0.14550000000000002         0.17314393337121614     
  0.14587500000000003         0.17029708205375901     
  0.14624999999999999         0.15704804718495524     
  0.14662500000000001         0.13524861641728797     
  0.14700000000000002         0.10729841913898508     
  0.14737500000000003          7.5709977793374059E-002
  0.14774999999999999          4.3035429704405999E-002
  0.14812500000000001          1.1536013204694745E-002
  0.14850000000000002         -1.6707144453620145E-002
  0.14887500000000004         -4.0130601542607926E-002
  0.14924999999999999         -5.7486639730951285E-002
  0.14962500000000001         -6.7954107084112314E-002
  0.15000000000000002         -7.1241894941818290E-002
  0.15037499999999998         -6.7441313010581677E-002
  0.15075000000000000         -5.7331738481734673E-002
  0.15112500000000001         -4.2109464277494631E-002
  0.15150000000000002         -2.3687791839245645E-002
  0.15187499999999998         -4.3506716872412834E-003
  0.15225000000000000          1.3288353344382709E-002
  0.15262500000000001          2.6601837268021310E-002
  0.15300000000000002          3.3280583012674538E-002
  0.15337499999999998          3.1696920406733595E-002
  0.15375000000000000          2.1198131825727252E-002
  0.15412500000000001          2.2642419301802811E-003
  0.15450000000000003         -2.3374617230910385E-002
  0.15487499999999998         -5.3019725523100386E-002
  0.15525000000000000         -8.3173836362614578E-002
  0.15562500000000001        -0.11017236494237093     
  0.15600000000000003        -0.13053718263738701     
  0.15637499999999999        -0.14157801812996285     
  0.15675000000000000        -0.14171269084718624     
  0.15712500000000001        -0.13068669862561563     
  0.15750000000000003        -0.10966724456516125     
  0.15787499999999999         -8.0885216331449669E-002
  0.15825000000000000         -4.7491439438671117E-002
  0.15862500000000002         -1.2936160697584947E-002
  0.15900000000000003          1.9397150327588434E-002
  0.15937499999999999          4.6663935284620747E-002
  0.15975000000000000          6.6872516683829403E-002
  0.16012500000000002          7.9119250933383095E-002
  0.16050000000000003          8.3547277978437126E-002
  0.16087499999999999          8.1347973849429683E-002
  0.16125000000000000          7.4576416718187863E-002
  0.16162500000000002          6.5801173260536611E-002
  0.16200000000000003          5.7962012601765783E-002
  0.16237499999999999          5.3918896077255474E-002
  0.16275000000000001          5.6266184398366274E-002
  0.16312500000000002          6.6926453877646008E-002
  0.16350000000000003          8.6959937619872044E-002
  0.16387499999999999         0.11632938394352871     
  0.16425000000000001         0.15365417808372775     
  0.16462500000000002         0.19629735891263947     
  0.16500000000000004         0.24033830912408366     
  0.16537499999999999         0.28082637415441852     
  0.16575000000000001         0.31223902372691759     
  0.16612500000000002         0.32899765795614677     
  0.16650000000000004         0.32605368033194398     
  0.16687500000000000         0.29961268113286604     
  0.16725000000000001         0.24764436910521681     
  0.16762500000000002         0.17039618982673868     
  0.16799999999999998          7.0488657370278707E-002
  0.16837500000000000         -4.7158896155948787E-002
  0.16875000000000001        -0.17549974526843143     
  0.16912500000000003        -0.30625900006198103     
  0.16949999999999998        -0.43044938233829466     
  0.16987500000000000        -0.53929854237549901     
  0.17025000000000001        -0.62519743915115122     
  0.17062500000000003        -0.68233063448896336     
  0.17099999999999999        -0.70729265599865165     
  0.17137500000000000        -0.69928463829793208     
  0.17175000000000001        -0.66027834523019835     
  0.17212500000000003        -0.59455710253256799     
  0.17249999999999999        -0.50823328968572146     
  0.17287500000000000        -0.40841464700165814     
  0.17325000000000002        -0.30241805737117899     
  0.17362500000000003        -0.19677400942096510     
  0.17399999999999999         -9.6454110126896947E-002
  0.17437500000000000         -4.3976083564701042E-003
  0.17475000000000002          7.8840741021610788E-002
  0.17512500000000003         0.15479301975941478     
  0.17549999999999999         0.22673478618971760     
  0.17587500000000000         0.29866877032354755     
  0.17625000000000002         0.37439440820080849     
  0.17662500000000003         0.45653412147636141     
  0.17699999999999999         0.54531228670205678     
  0.17737500000000000         0.63829313542026234     
  0.17775000000000002         0.73006448877577579     
  0.17812500000000003         0.81251947578595618     
  0.17849999999999999         0.87583277067429766     
  0.17887500000000001         0.90950471820229084     
  0.17925000000000002         0.90408018321320904     
  0.17962500000000003         0.85215033832987230     
  0.17999999999999999         0.75009825390880303     
  0.18037500000000001         0.59871729298305187     
  0.18075000000000002         0.40346456725014368     
  0.18112500000000004         0.17472832413346848     
  0.18149999999999999         -7.3478091346563246E-002
  0.18187500000000001        -0.32448109477115333     
  0.18225000000000002        -0.56030044812675406     
  0.18262500000000004        -0.76385567025462286     
  0.18300000000000000        -0.92017735096146258     
  0.18337500000000001         -1.0180361427048950     
  0.18375000000000002         -1.0510580008464150     
  0.18412499999999998         -1.0181009475718974     
  0.18450000000000000        -0.92337215294295993     
  0.18487500000000001        -0.77592270490506243     
  0.18525000000000003        -0.58871335897477617     
  0.18562499999999998        -0.37703590420469452     
  0.18600000000000000        -0.15746549936375553     
  0.18637500000000001          5.3943002093372286E-002
  0.18675000000000003         0.24305849099717247     
  0.18712499999999999         0.39815232650342192     
  0.18750000000000000         0.51126424944086579     
  0.18787500000000001         0.57798762538724024     
  0.18825000000000003         0.59741675965367980     
  0.18862499999999999         0.57211163261284625     
  0.18900000000000000         0.50711827278603983     