  -1.4999999999999999E-002     0.0000000000000000     
  -1.4624999999999999E-002     0.0000000000000000     
  -1.4249999999999999E-002     0.0000000000000000     
  -1.3874999999999998E-002     0.0000000000000000     
  -1.3500000000000000E-002     0.0000000000000000     
  -1.3125000000000000E-002     0.0000000000000000     
  -1.2749999999999999E-002     0.0000000000000000     
  -1.2374999999999999E-002     0.0000000000000000     
  -1.2000000000000000E-002     0.0000000000000000     
  -1.1625000000000000E-002     0.0000000000000000     
  -1.1250000000000000E-002     0.0000000000000000     
  -1.0874999999999999E-002     0.0000000000000000     
  -1.0499999999999999E-002     0.0000000000000000     
  -1.0124999999999999E-002     0.0000000000000000     
  -9.7499999999999983E-003     0.0000000000000000     
  -9.3749999999999979E-003     0.0000000000000000     
  -8.9999999999999993E-003     0.0000000000000000     
  -8.6249999999999990E-003     0.0000000000000000     
  -8.2500000000000004E-003     0.0000000000000000     
  -7.8750000000000001E-003     1.4928131227510801E-036
  -7.4999999999999989E-003    -1.7184421545264024E-035
  -7.1249999999999994E-003     1.1283414878330229E-035
  -6.7499999999999991E-003     4.9001224616852817E-034
  -6.3749999999999987E-003    -1.5178700486027573E-033
  -5.9999999999999984E-003    -5.4424180154868537E-034
  -5.6249999999999998E-003     3.0803593838929844E-033
  -5.2499999999999995E-003     8.2084680279729334E-034
  -4.8749999999999991E-003    -1.6358617397065228E-032
  -4.4999999999999988E-003     7.2019189860869642E-032
  -4.1249999999999985E-003    -2.1474140022164426E-031
  -3.7499999999999981E-003     4.1427978139063315E-031
  -3.3749999999999995E-003    -4.1437572727569761E-031
  -2.9999999999999992E-003    -3.3036908889776693E-031
  -2.6249999999999989E-003     2.4240876517622446E-030
  -2.2499999999999985E-003    -6.0205327479528602E-030
  -1.8749999999999982E-003     1.0682975624812397E-029
  -1.4999999999999996E-003    -1.6698584905423167E-029
  -1.1249999999999993E-003     2.7810401618734436E-029
  -7.4999999999999893E-004    -5.2609894914331686E-029
  -3.7499999999999860E-004     1.0071452112383361E-028
   1.7347234759768071E-018    -1.7438524585722004E-028
   3.7500000000000207E-004     2.6412367525251610E-028
   7.5000000000000067E-004    -3.5562228362439239E-028
   1.1250000000000010E-003     4.3540881326951871E-028
   1.5000000000000013E-003    -4.5408206525444171E-028
   1.8750000000000017E-003     2.2331572565075431E-028
   2.2500000000000020E-003     5.6910041348059629E-028
   2.6250000000000023E-003    -1.6611978442311267E-027
   3.0000000000000027E-003     6.5707314743529414E-028
   3.3750000000000030E-003     6.7214832757182995E-027
   3.7499999999999999E-003    -1.8309102503018124E-026
   4.1250000000000002E-003    -1.9440779049498597E-026
   4.5000000000000005E-003     3.0245429815104371E-025
   4.8750000000000009E-003     7.0762948013745412E-024
   5.2500000000000012E-003     3.7888519263270267E-023
   5.6250000000000015E-003     1.0786371149952857E-022
   6.0000000000000019E-003     4.6199405217058354E-022
   6.3750000000000022E-003     1.7210428739170665E-021
   6.7500000000000025E-003     6.1569629501861628E-021
   7.1250000000000029E-003     2.2512247566776647E-020
   7.5000000000000032E-003     8.0362513400330082E-020
   7.8750000000000001E-003     2.7579445078223376E-019
   8.2500000000000004E-003     9.5057248497794145E-019
   8.6250000000000007E-003     3.1830252387061977E-018
   9.0000000000000011E-003     1.0457987390302417E-017
   9.3750000000000014E-003     3.3887993272840532E-017
   9.7500000000000017E-003     1.0740385987611201E-016
   1.0125000000000002E-002     3.3476072371633497E-016
   1.0500000000000002E-002     1.0235094694342308E-015
   1.0875000000000003E-002     3.0733862534520221E-015
   1.1250000000000003E-002     9.0550732496246853E-015
   1.1625000000000003E-002     2.6193827474689053E-014
   1.2000000000000000E-002     7.4370343587157210E-014
   1.2375000000000001E-002     2.0723769006461428E-013
   1.2750000000000001E-002     5.6680741307094547E-013
   1.3125000000000001E-002     1.5215271325601734E-012
   1.3500000000000002E-002     4.0080066785809389E-012
   1.3875000000000002E-002     1.0362213294487693E-011
   1.4250000000000002E-002     2.6286745432251962E-011
   1.4625000000000003E-002     6.5439015285027726E-011
   1.5000000000000003E-002     1.5983776018248911E-010
   1.5375000000000003E-002     3.8305389422114123E-010
   1.5750000000000004E-002     9.0064216251142788E-010
   1.6125000000000000E-002     2.0773679134526058E-009
   1.6500000000000001E-002     4.7003152010857526E-009
   1.6875000000000001E-002     1.0431471054951945E-008
   1.7250000000000001E-002     2.2706001613876569E-008
   1.7625000000000002E-002     4.8468947615235296E-008
   1.8000000000000002E-002     1.0145531468708666E-007
   1.8375000000000002E-002     2.0821951197809260E-007
   1.8750000000000003E-002     4.1894191709729479E-007
   1.9125000000000003E-002     8.2624236004721717E-007
   1.9500000000000003E-002     1.5970446448327252E-006
   1.9875000000000004E-002     3.0249003446573620E-006
   2.0250000000000004E-002     5.6131172679052637E-006
   2.0625000000000004E-002     1.0202553134246280E-005
   2.1000000000000005E-002     1.8160001431642157E-005
   2.1375000000000005E-002     3.1645348299868039E-005
   2.1750000000000005E-002     5.3970663390038920E-005
   2.2125000000000006E-002     9.0053608810020897E-005
   2.2499999999999999E-002     1.4694975293331767E-004
   2.2875000000000000E-002     2.3439076143525866E-004
   2.3250000000000000E-002     3.6524183483261800E-004
   2.3625000000000000E-002     5.5563969919725047E-004
   2.4000000000000000E-002     8.2455694782235028E-004
   2.4375000000000001E-002     1.1924286990780723E-003
   2.4750000000000001E-002     1.6783757563351290E-003
   2.5125000000000001E-002     2.2956316397348894E-003
   2.5500000000000002E-002     3.0448967544390083E-003
   2.5875000000000002E-002     3.9058205892679781E-003
   2.6250000000000002E-002     4.8264742154091713E-003
   2.6625000000000003E-002     5.7134861991867819E-003
   2.7000000000000003E-002     6.4228622221085933E-003
   2.7375000000000003E-002     6.7568335549298784E-003
   2.7750000000000004E-002     6.4662585811067555E-003
   2.8125000000000004E-002     5.2690584275360188E-003
   2.8500000000000004E-002     2.8754350055776976E-003
   2.8875000000000005E-002    -9.6372860387909079E-004
   2.9250000000000005E-002    -6.4051516753658626E-003
   2.9625000000000005E-002    -1.3445033349172098E-002
   3.0000000000000006E-002    -2.1864078778707739E-002
   3.0375000000000006E-002    -3.1179864401440924E-002
   3.0750000000000000E-002    -4.0632884407111644E-002
   3.1125000000000000E-002    -4.9212588060037851E-002
   3.1500000000000000E-002    -5.5738046327634683E-002
   3.1875000000000001E-002    -5.8978358201234093E-002
   3.2250000000000001E-002    -5.7825545781597598E-002
   3.2625000000000001E-002    -5.1479803673661423E-002
   3.3000000000000002E-002    -3.9629173734261627E-002
   3.3375000000000002E-002    -2.2571867367524041E-002
   3.3750000000000002E-002    -1.3044599733487970E-003
   3.4125000000000003E-002     2.2559339936052351E-002
   3.4500000000000003E-002     4.6884597084812241E-002
   3.4875000000000003E-002     6.9283107288899359E-002
   3.5250000000000004E-002     8.7401170757029273E-002
   3.5625000000000004E-002     9.9234257469187959E-002
   3.6000000000000004E-002    0.10340300987079305     
   3.6375000000000005E-002     9.9329023317418913E-002
   3.6750000000000005E-002     8.7321790668853344E-002
   3.7125000000000005E-002     6.8453142395811989E-002
   3.7500000000000006E-002     4.4401398708970238E-002
   3.7875000000000006E-002     1.7097648097311784E-002
   3.8250000000000006E-002    -1.1536825466838516E-002
   3.8625000000000007E-002    -3.9933090574436607E-002
   3.9000000000000000E-002    -6.7005156137902394E-002
   3.9375000000000000E-002    -9.2175416381815325E-002
   3.9750000000000001E-002   -0.11531878816563093     
   4.0125000000000001E-002   -0.13638292736587443     
   4.0500000000000001E-002   -0.15511682173436458     
   4.0875000000000002E-002   -0.17067950561834855     
   4.1250000000000002E-002   -0.18134958313157429     
   4.1625000000000002E-002   -0.18448845412762305     
   4.2000000000000003E-002   -0.17660000263384681     
   4.2375000000000003E-002   -0.15377112344861268     
   4.2750000000000003E-002   -0.11228023841858115     
   4.3125000000000004E-002    -4.9409702868113664E-002
   4.3500000000000004E-002     3.5760968208552138E-002
   4.3875000000000004E-002    0.14163957269896987     
   4.4250000000000005E-002    0.26360200628508657     
   4.4625000000000005E-002    0.39401823835806288     
   4.5000000000000005E-002    0.52250983349883162     
   4.5375000000000006E-002    0.63697672658392579     
   4.5750000000000006E-002    0.72472166911325309     
   4.6125000000000006E-002    0.77406946687278944     
   4.6500000000000007E-002    0.77583847574511000     
   4.6875000000000007E-002    0.72475120292137341     
   4.7250000000000000E-002    0.62030978681160898     
   4.7625000000000001E-002    0.46707966428074155     
   4.8000000000000001E-002    0.27444052268665453     
   4.8375000000000001E-002     5.5391112659125580E-002
   4.8750000000000002E-002   -0.17465712887913404     
   4.9125000000000002E-002   -0.39983672035824042     
   4.9500000000000002E-002   -0.60539206025467274     
   4.9875000000000003E-002   -0.77926178260621715     
   5.0250000000000003E-002   -0.91285150108862378     
   5.0625000000000003E-002    -1.0015324094254732     
   5.1000000000000004E-002    -1.0445824550270393     
   5.1375000000000004E-002    -1.0442504643376025     
   5.1750000000000004E-002    -1.0051712306548750     
   5.2125000000000005E-002   -0.93327311019164627     
   5.2500000000000005E-002   -0.83479987143761769     
   5.2875000000000005E-002   -0.71596684626689822     
   5.3250000000000006E-002   -0.58240216764765318     
   5.3625000000000006E-002   -0.43930060213611299     
   5.4000000000000006E-002   -0.29131994858476951     
   5.4375000000000007E-002   -0.14298707965183344     
   5.4750000000000007E-002     1.3855550406911069E-003
   5.5125000000000007E-002    0.13757477266517568     
   5.5500000000000008E-002    0.26159258096543603     
   5.5875000000000008E-002    0.37011927978504505     
   5.6250000000000008E-002    0.46047855333896909     
   5.6625000000000009E-002    0.53112999762012669     
   5.7000000000000009E-002    0.58160733748959481     
   5.7375000000000009E-002    0.61264071922477126     
   5.7750000000000010E-002    0.62571727513289077     
   5.8125000000000010E-002    0.62308322272217453     
   5.8500000000000010E-002    0.60724640765869164     
   5.8875000000000011E-002    0.58073899861519740     
   5.9250000000000011E-002    0.54590540094721696     
   5.9624999999999997E-002    0.50497899301557903     
   5.9999999999999998E-002    0.45993495868487888     
   6.0374999999999998E-002    0.41274633426340324     
   6.0749999999999998E-002    0.36558181823948599     
   6.1124999999999999E-002    0.32067224537581268     
   6.1499999999999999E-002    0.28076799524046636     
   6.1874999999999999E-002    0.24858985274608392     
   6.2250000000000000E-002    0.22656109425627513     
   6.2625000000000000E-002    0.21656270717908319     
   6.3000000000000000E-002    0.21872126157498639     
   6.3375000000000001E-002    0.23099548826601310     
   6.3750000000000001E-002    0.24824486957827485     
   6.4125000000000001E-002    0.26202896580666057     
   6.4500000000000002E-002    0.26081191864038045     
   6.4875000000000002E-002    0.23079954817573223     
   6.5250000000000002E-002    0.15809485640784687     
   6.5625000000000003E-002     3.1097646244335655E-002
   6.6000000000000003E-002   -0.15617589597613532     
   6.6375000000000003E-002   -0.40089182022470693     
   6.6750000000000004E-002   -0.68962863706080380     
   6.7125000000000004E-002   -0.99683152080593063     
   6.7500000000000004E-002    -1.2865273480545105     
   6.7875000000000005E-002    -1.5157419771016700     
   6.8250000000000005E-002    -1.6398548781615061     
   6.8625000000000005E-002    -1.6200861289852904     
   6.9000000000000006E-002    -1.4304538147966728     
   6.9375000000000006E-002    -1.0641462997295781     
   6.9750000000000006E-002   -0.53775817549853488     
   7.0125000000000007E-002    0.10837820536326814     
   7.0500000000000007E-002    0.81310015617900799     
   7.0875000000000007E-002     1.5014067472587274     
   7.1250000000000008E-002     2.0935053814659357     
   7.1625000000000008E-002     2.5156919163472953     
   7.2000000000000008E-002     2.7103495587058033     
   7.2375000000000009E-002     2.6440639370160000     
   7.2750000000000009E-002     2.3121293031686543     
   7.3125000000000009E-002     1.7393835594967930     
   7.3500000000000010E-002    0.97678541202501434     
   7.3875000000000010E-002     9.4631056554715709E-002
   7.4250000000000010E-002   -0.82580379292992823     
   7.4625000000000011E-002    -1.7025995682321693     
   7.5000000000000011E-002    -2.4611989749293421     
   7.5375000000000011E-002    -3.0422046494058219     
   7.5750000000000012E-002    -3.4059297146780478     
   7.6124999999999998E-002    -3.5340103430586205     
   7.6499999999999999E-002    -3.4293893466449994     
   7.6874999999999999E-002    -3.1128918902561464     
   7.7249999999999999E-002    -2.6195257412857478     
   7.7625000000000000E-002    -1.9933415835056243     
   7.8000000000000000E-002    -1.2829562075444136     
   7.8375000000000000E-002   -0.53642509210756562     
   7.8750000000000001E-002    0.20148461759300762     
   7.9125000000000001E-002    0.89248196562695115     
   7.9500000000000001E-002     1.5059167847656152     
   7.9875000000000002E-002     2.0194488215467734     
   8.0250000000000002E-002     2.4190448593921055     
   8.0625000000000002E-002     2.6982094161876349     
   8.1000000000000003E-002     2.8570855485636244     
   8.1375000000000003E-002     2.9008522090835021     
   8.1750000000000003E-002     2.8392648903343654     
   8.2125000000000004E-002     2.6849241538788888     
   8.2500000000000004E-002     2.4524649961334868     
   8.2875000000000004E-002     2.1574848121015835     
   8.3250000000000005E-002     1.8158708473461984     
   8.3625000000000005E-002     1.4432533479085259     
   8.4000000000000005E-002     1.0542725247995999     
   8.4375000000000006E-002    0.66241358496505165     
   8.4750000000000006E-002    0.27935225474687142     
   8.5125000000000006E-002    -8.4558951923372871E-002
   8.5500000000000007E-002   -0.42088141440609306     
   8.5875000000000007E-002   -0.72296262768988684     
   8.6250000000000007E-002   -0.98583800443474257     
   8.6625000000000008E-002    -1.2062731354449641     
   8.7000000000000008E-002    -1.3824030373458491     
   8.7375000000000008E-002    -1.5137631500787805     
   8.7750000000000009E-002    -1.6012571486076586     
   8.8125000000000009E-002    -1.6467092730659643     
   8.8500000000000009E-002    -1.6528820299605602     
   8.8875000000000010E-002    -1.6227595464360540     
   8.9250000000000010E-002    -1.5604939656284722     
   8.9625000000000010E-002    -1.4700272825633185     
   9.0000000000000011E-002    -1.3554022507108350     
   9.0375000000000011E-002    -1.2211677773549199     
   9.0750000000000011E-002    -1.0713375843498079     
   9.1125000000000012E-002   -0.91018699504882128     
   9.1500000000000012E-002   -0.74177885465049509     
   9.1875000000000012E-002   -0.56976900099564687     
   9.2250000000000013E-002   -0.39758440038294274     
   9.2624999999999999E-002   -0.22877015526596833     
   9.2999999999999999E-002    -6.5871340265050426E-002
   9.3375000000000000E-002     8.8265611024615082E-002
   9.3750000000000000E-002    0.23159492193523334     
   9.4125000000000000E-002    0.36231197864495224     
   9.4500000000000001E-002    0.47875244391208371     
   9.4875000000000001E-002    0.58001374568693076     
   9.5250000000000001E-002    0.66536916108748301     
   9.5625000000000002E-002    0.73454109317905658     
   9.6000000000000002E-002    0.78750321844097293     
   9.6375000000000002E-002    0.82452476692022070     
   9.6750000000000003E-002    0.84634534026005392     
   9.7125000000000003E-002    0.85356526139593802     
   9.7500000000000003E-002    0.84720752607201355     
   9.7875000000000004E-002    0.82813680170581527     
   9.8250000000000004E-002    0.79734907605523631     
   9.8625000000000004E-002    0.75620597120401545     
   9.9000000000000005E-002    0.70560494048008804     
   9.9375000000000005E-002    0.64661248052236042     
   9.9750000000000005E-002    0.58064008171094172     
  0.10012500000000001         0.50874768982884833     
  0.10050000000000001         0.43207171643486553     
  0.10087500000000001         0.35214286183930227     
  0.10125000000000001         0.26977767532704711     
  0.10162500000000001         0.18666940847150237     
  0.10200000000000001         0.10395272423084281     
  0.10237500000000001          2.2989184304720453E-002
  0.10275000000000001         -5.4982965752262677E-002
  0.10312500000000001        -0.12881216831642972     
  0.10350000000000001        -0.19703819888880938     
  0.10387500000000001        -0.25924746137187749     
  0.10425000000000001        -0.31420275992495711     
  0.10462500000000001        -0.36152611891988823     
  0.10500000000000001        -0.40097158318533532     
  0.10537500000000001        -0.43206323765773058     
  0.10575000000000001        -0.45502582419391224     
  0.10612500000000001        -0.47007863100790870     
  0.10650000000000001        -0.47718636441482432     
  0.10687500000000001        -0.47713795306032813     
  0.10725000000000001        -0.47015924224816563     
  0.10762500000000001        -0.45681196027639848     
  0.10800000000000001        -0.43782046002369135     
  0.10837500000000001        -0.41355215861863293     
  0.10875000000000001        -0.38468298302598358     
  0.10912500000000000        -0.35179918092060469     
  0.10950000000000000        -0.31541665229515015     
  0.10987500000000000        -0.27620808253236873     
  0.11025000000000000        -0.23464032679881613     
  0.11062500000000001        -0.19155028994614670     
  0.11100000000000000        -0.14747204915045733     
  0.11137500000000002        -0.10307075516883009     
  0.11175000000000000         -5.9257691975943896E-002
  0.11212500000000002         -1.6450946016018445E-002
  0.11250000000000000          2.4601307386609192E-002
  0.11287500000000002          6.3368037731403856E-002
  0.11325000000000000          9.9233216269278057E-002
  0.11362500000000002         0.13196945800262669     
  0.11400000000000000         0.16126748467846311     
  0.11437500000000002         0.18664990106905582     
  0.11475000000000000         0.20835664953524530     
  0.11512500000000002         0.22620170048777322     
  0.11550000000000001         0.24014730278935220     
  0.11587500000000002         0.25070988562143376     
  0.11625000000000001         0.25768933817612572     
  0.11662500000000002         0.26127734288530458     
  0.11700000000000001         0.26199276282956258     
  0.11737499999999999         0.25967908944076068     
  0.11775000000000001         0.25447276370730232     
  0.11812499999999999         0.24657868000633515     
  0.11850000000000001         0.23595142224065435     
  0.11887499999999999         0.22280095611031575     
  0.11925000000000001         0.20717594914207291     
  0.11962500000000000         0.18916246646775381     
  0.12000000000000001         0.16898966803095378     
  0.12037500000000000         0.14703472989662561     
  0.12075000000000001         0.12357451902450928     
  0.12112500000000000          9.8827971220769487E-002
  0.12150000000000001          7.3376214720951183E-002
  0.12187500000000000          4.7753368742206079E-002
  0.12225000000000001          2.2249958884414653E-002
  0.12262500000000000         -2.4081098037880833E-003
  0.12300000000000001         -2.6053981590622416E-002
  0.12337500000000000         -4.8186460945748202E-002
  0.12375000000000001         -6.8472348725771820E-002
  0.12412500000000000         -8.6810238243191840E-002
  0.12450000000000001        -0.10320972980240059     
  0.12487500000000000        -0.11750358257301638     
  0.12525000000000003        -0.12979362860243721     
  0.12562499999999999        -0.14007136128933975     
  0.12600000000000000        -0.14845350351395367     
  0.12637500000000002        -0.15508251466460757     
  0.12675000000000003        -0.15970697669775719     
  0.12712499999999999        -0.16249080226647183     
  0.12750000000000000        -0.16343970165773958     
  0.12787500000000002        -0.16237263309882896     
  0.12825000000000003        -0.15939396338297968     
  0.12862499999999999        -0.15430549303590640     
  0.12900000000000000        -0.14717171909150112     
  0.12937500000000002        -0.13807370611490480     
  0.12975000000000003        -0.12722865700015429     
  0.13012499999999999        -0.11457291589569979     
  0.13050000000000000        -0.10070897843335297     
  0.13087500000000002         -8.5774664751900306E-002
  0.13125000000000003         -7.0323938472502429E-002
  0.13162499999999999         -5.4580109472033581E-002
  0.13200000000000001         -3.8962569940665645E-002
  0.13237500000000002         -2.3758401557975671E-002
  0.13275000000000003         -9.1571565970329644E-003
  0.13312499999999999          4.5508849469564176E-003
  0.13350000000000001          1.7437591192940978E-002
  0.13387500000000002          2.9586351274492759E-002
  0.13424999999999998          4.0600248017040305E-002
  0.13462499999999999          5.0963182596608134E-002
  0.13500000000000001          6.0556932190077739E-002
  0.13537500000000002          6.9303787172895953E-002
  0.13574999999999998          7.7480044752441163E-002
  0.13612500000000000          8.4885009592728627E-002
  0.13650000000000001          9.1276612625207323E-002
  0.13687500000000002          9.6897176922348768E-002
  0.13724999999999998         0.10127505771806918     
  0.13762500000000000         0.10430872848583291     
  0.13800000000000001         0.10587096704129167     
  0.13837500000000003         0.10585518002196129     
  0.13874999999999998         0.10417399929046273     
  0.13912500000000000         0.10100648446310585     
  0.13950000000000001          9.6255867564833245E-002
  0.13987500000000003          9.0207295089856698E-002
  0.14024999999999999          8.3036130674104092E-002
  0.14062500000000000          7.5058667713826077E-002
  0.14100000000000001          6.6317017847838111E-002
  0.14137500000000003          5.7300014722509146E-002
  0.14174999999999999          4.8021531722168526E-002
  0.14212500000000000          3.8878852405875665E-002
  0.14250000000000002          2.9927379849462671E-002
  0.14287500000000003          2.1223812618670641E-002
  0.14324999999999999          1.2741025711166538E-002
  0.14362500000000000          4.7586743997250127E-003
  0.14400000000000002         -3.2436705230365131E-003
  0.14437500000000003         -1.1089513370742815E-002
  0.14474999999999999         -1.8919148713792876E-002
  0.14512500000000000         -2.6842401014671294E-002
  0.14550000000000002         -3.4532726995896032E-002
  0.14587500000000003         -4.2108217904893164E-002
  0.14624999999999999         -4.9307746184644292E-002
  0.14662500000000001         -5.5763192679381318E-002
  0.14700000000000002         -6.1338035287473697E-002
  0.14737500000000003         -6.5694544831735355E-002
  0.14774999999999999         -6.8959050942983435E-002
  0.14812500000000001         -7.0879118185160822E-002
  0.14850000000000002         -7.1427412524809053E-002
  0.14887500000000004         -7.0940536294003126E-002
  0.14924999999999999         -6.9414055141539519E-002
  0.14962500000000001         -6.6987922289168805E-002
  0.15000000000000002         -6.3954920691438127E-002
  0.15037499999999998         -6.0189307488441618E-002
  0.15075000000000000         -5.5895082867886303E-002
  0.15112500000000001         -5.1394304486342302E-002
  0.15150000000000002         -4.6327994581420340E-002
  0.15187499999999998         -4.1112514490917504E-002
  0.15225000000000000         -3.5762332320812398E-002
  0.15262500000000001         -3.0235353892885668E-002
  0.15300000000000002         -2.4895980346552094E-002
  0.15337499999999998         -1.9508511784529076E-002
  0.15375000000000000         -1.4095046020622989E-002
  0.15412500000000001         -8.8649103630139628E-003
  0.15450000000000003         -3.4466497941745677E-003
  0.15487499999999998          2.0330625794816779E-003
  0.15525000000000000          7.6551928029049907E-003
  0.15562500000000001          1.3476315140867223E-002
  0.15600000000000003          1.9156668799246854E-002
  0.15637499999999999          2.4776388341955835E-002
  0.15675000000000000          3.0100043310999462E-002
  0.15712500000000001          3.4699941517187360E-002
  0.15750000000000003          3.8782949614791173E-002
  0.15787499999999999          4.1925805078501806E-002
  0.15825000000000000          4.4197053110984423E-002
  0.15862500000000002          4.5763179010708317E-002
  0.15900000000000003          4.6443982473860820E-002
  0.15937499999999999          4.6540835089532183E-002
  0.15975000000000000          4.6066623707660931E-002
  0.16012500000000002          4.5113657302022325E-002
  0.16050000000000003          4.3871471401498018E-002
  0.16087499999999999          4.2198624179970640E-002
  0.16125000000000000          4.0300004064137147E-002
  0.16162500000000002          3.8205841169188751E-002
  0.16200000000000003          3.5658579037421721E-002
  0.16237499999999999          3.2997552173609668E-002
  0.16275000000000001          3.0000949629053912E-002
  0.16312500000000002          2.6494638639288512E-002
  0.16350000000000003          2.2668904354615799E-002
  0.16387499999999999          1.8628627879336015E-002
  0.16425000000000001          1.4106264553007748E-002
  0.16462500000000002          9.4162016174543298E-003
  0.16500000000000004          4.7253821967938453E-003
  0.16537499999999999          3.4620524682210402E-006
  0.16575000000000001         -4.5056971631613155E-003
  0.16612500000000002         -8.5431276907562449E-003
  0.16650000000000004         -1.2416071723411000E-002
  0.16687500000000000         -1.5768441085709507E-002
  0.16725000000000001         -1.8504612082678992E-002
  0.16762500000000002         -2.1002563947282255E-002
  0.16799999999999998         -2.3007393489768047E-002
  0.16837500000000000         -2.4685477445156642E-002
  0.16875000000000001         -2.6041319948340230E-002
  0.16912500000000003         -2.7129540614196330E-002
  0.16949999999999998         -2.8117677617896422E-002
  0.16987500000000000         -2.8942390542044748E-002
  0.17025000000000001         -2.9712444826631920E-002
  0.17062500000000003         -3.0250775315555561E-002
  0.17099999999999999         -3.0624762225913274E-002
  0.17137500000000000         -3.0906518243273874E-002
  0.17175000000000001         -3.0618341283760613E-002
  0.17212500000000003         -2.9957115975629278E-002
  0.17249999999999999         -2.8839417815134341E-002
  0.17287500000000000         -2.7083434597691670E-002
  0.17325000000000002         -2.4929677808494012E-002
  0.17362500000000003         -2.2259648599203374E-002
  0.17399999999999999         -1.9119656969243171E-002
  0.17437500000000000         -1.5872660843473420E-002
  0.17475000000000002         -1.2454049371898188E-002
  0.17512500000000003         -8.9302900036859270E-003
  0.17549999999999999         -5.5938045101028185E-003
  0.17587500000000000         -2.3607860405051966E-003
  0.17625000000000002          5.2151204194583235E-004
  0.17662500000000003          3.1128429049288213E-003
  0.17699999999999999          5.4500526853927325E-003
  0.17737500000000000          7.4348554133670912E-003
  0.17775000000000002          9.2121507826526637E-003
  0.17812500000000003          1.0828644043400507E-002
  0.17849999999999999          1.2421490730919723E-002
  0.17887500000000001          1.4037426473479143E-002
  0.17925000000000002          1.5718060972615688E-002
  0.17962500000000003          1.7314635668382660E-002
  0.17999999999999999          1.9009509269441401E-002
  0.18037500000000001          2.0543568459957386E-002
  0.18075000000000002          2.1908029988318263E-002
  0.18112500000000004          2.2915482400803506E-002
  0.18149999999999999          2.3573703897059609E-002
  0.18187500000000001          2.3789294858616319E-002
  0.18225000000000002          2.3542132419345579E-002
  0.18262500000000004          2.2859626330578919E-002
  0.18300000000000000          2.1694717891785988E-002
  0.18337500000000001          2.0086517798821306E-002
  0.18375000000000002          1.8325552108144724E-002
  0.18412499999999998          1.6265499074224855E-002
  0.18450000000000000          1.4043469161348937E-002
  0.18487500000000001          1.1979948509514726E-002
  0.18525000000000003          9.9499020613890571E-003
  0.18562499999999998          8.0356561095793477E-003
  0.18600000000000000          6.4106537190463855E-003
  0.18637500000000001          4.8238432205872208E-003
  0.18675000000000003          3.3225247317944283E-003
  0.18712499999999999          1.9245344389880259E-003
  0.18750000000000000          4.8202923319179631E-004
  0.18787500000000001         -1.0806785156723554E-003
  0.18825000000000003         -2.7548874751288348E-003
  0.18862499999999999         -4.4470633290000991E-003
  0.18900000000000000         -6.2709352560321573E-003