  -1.4999999999999999E-002     0.0000000000000000     
  -1.4624999999999999E-002     0.0000000000000000     
  -1.4249999999999999E-002     0.0000000000000000     
  -1.3874999999999998E-002     0.0000000000000000     
  -1.3500000000000000E-002     0.0000000000000000     
  -1.3125000000000000E-002     0.0000000000000000     
  -1.2749999999999999E-002     0.0000000000000000     
  -1.2374999999999999E-002     0.0000000000000000     
  -1.2000000000000000E-002     0.0000000000000000     
  -1.1625000000000000E-002     0.0000000000000000     
  -1.1250000000000000E-002     0.0000000000000000     
  -1.0874999999999999E-002     0.0000000000000000     
  -1.0499999999999999E-002     0.0000000000000000     
  -1.0124999999999999E-002     0.0000000000000000     
  -9.7499999999999983E-003     0.0000000000000000     
  -9.3749999999999979E-003     0.0000000000000000     
  -8.9999999999999993E-003     0.0000000000000000     
  -8.6249999999999990E-003     0.0000000000000000     
  -8.2500000000000004E-003     0.0000000000000000     
  -7.8750000000000001E-003     0.0000000000000000     
  -7.4999999999999989E-003     0.0000000000000000     
  -7.1249999999999994E-003     0.0000000000000000     
  -6.7499999999999991E-003     0.0000000000000000     
  -6.3749999999999987E-003     0.0000000000000000     
  -5.9999999999999984E-003     0.0000000000000000     
  -5.6249999999999998E-003     0.0000000000000000     
  -5.2499999999999995E-003     0.0000000000000000     
  -4.8749999999999991E-003     0.0000000000000000     
  -4.4999999999999988E-003     0.0000000000000000     
  -4.1249999999999985E-003     0.0000000000000000     
  -3.7499999999999981E-003     0.0000000000000000     
  -3.3749999999999995E-003     0.0000000000000000     
  -2.9999999999999992E-003     0.0000000000000000     
  -2.6249999999999989E-003     0.0000000000000000     
  -2.2499999999999985E-003     0.0000000000000000     
  -1.8749999999999982E-003     0.0000000000000000     
  -1.4999999999999996E-003     0.0000000000000000     
  -1.1249999999999993E-003     0.0000000000000000     
  -7.4999999999999893E-004     0.0000000000000000     
  -3.7499999999999860E-004     0.0000000000000000     
   1.7347234759768071E-018     0.0000000000000000     
   3.7500000000000207E-004     0.0000000000000000     
   7.5000000000000067E-004     0.0000000000000000     
   1.1250000000000010E-003     0.0000000000000000     
   1.5000000000000013E-003     0.0000000000000000     
   1.8750000000000017E-003     0.0000000000000000     
   2.2500000000000020E-003     0.0000000000000000     
   2.6250000000000023E-003     0.0000000000000000     
   3.0000000000000027E-003     0.0000000000000000     
   3.3750000000000030E-003     0.0000000000000000     
   3.7499999999999999E-003     0.0000000000000000     
   4.1250000000000002E-003     0.0000000000000000     
   4.5000000000000005E-003     0.0000000000000000     
   4.8750000000000009E-003     0.0000000000000000     
   5.2500000000000012E-003     0.0000000000000000     
   5.6250000000000015E-003     0.0000000000000000     
   6.0000000000000019E-003     0.0000000000000000     
   6.3750000000000022E-003     0.0000000000000000     
   6.7500000000000025E-003     0.0000000000000000     
   7.1250000000000029E-003     0.0000000000000000     
   7.5000000000000032E-003     0.0000000000000000     
   7.8750000000000001E-003     0.0000000000000000     
   8.2500000000000004E-003     0.0000000000000000     
   8.6250000000000007E-003     0.0000000000000000     
   9.0000000000000011E-003     0.0000000000000000     
   9.3750000000000014E-003     0.0000000000000000     
   9.7500000000000017E-003     0.0000000000000000     
   1.0125000000000002E-002     0.0000000000000000     
   1.0500000000000002E-002     0.0000000000000000     
   1.0875000000000003E-002     0.0000000000000000     
   1.1250000000000003E-002     0.0000000000000000     
   1.1625000000000003E-002     0.0000000000000000     
   1.2000000000000000E-002     0.0000000000000000     
   1.2375000000000001E-002     1.3005976718290564E-038
   1.2750000000000001E-002     2.7016655876426080E-036
   1.3125000000000001E-002     1.2772173433540516E-034
   1.3500000000000002E-002     1.5529516070406107E-033
   1.3875000000000002E-002     2.1308563069536644E-032
   1.4250000000000002E-002    -1.0201042881630106E-032
   1.4625000000000003E-002    -9.9925179128031063E-031
   1.5000000000000003E-002     6.7691026249729365E-031
   1.5375000000000003E-002     3.0190712221165132E-029
   1.5750000000000004E-002    -1.3695299467754259E-028
   1.6125000000000000E-002     8.7660030465708636E-030
   1.6500000000000001E-002     2.5663843132023442E-027
   1.6875000000000001E-002    -1.6293099882025351E-026
   1.7250000000000001E-002     6.6299170891274889E-026
   1.7625000000000002E-002    -2.3935098641693343E-025
   1.8000000000000002E-002     1.4896894235513554E-024
   1.8375000000000002E-002     5.5977772001424184E-024
   1.8750000000000003E-002     2.1626782002139813E-023
   1.9125000000000003E-002     8.1129260805774882E-023
   1.9500000000000003E-002     3.0683619648504358E-022
   1.9875000000000004E-002     1.1353992361932797E-021
   2.0250000000000004E-002     4.1267776422139805E-021
   2.0625000000000004E-002     1.4726455143768834E-020
   2.1000000000000005E-002     5.1597546935088169E-020
   2.1375000000000005E-002     1.7750161692866641E-019
   2.1750000000000005E-002     5.9951946479080038E-019
   2.2125000000000006E-002     1.9880490806990675E-018
   2.2499999999999999E-002     6.4724092175049350E-018
   2.2875000000000000E-002     2.0687667245050717E-017
   2.3250000000000000E-002     6.4916808704440828E-017
   2.3625000000000000E-002     1.9998180557859587E-016
   2.4000000000000000E-002     6.0478711352012637E-016
   2.4375000000000001E-002     1.7955054269793363E-015
   2.4750000000000001E-002     5.2327097840582806E-015
   2.5125000000000001E-002     1.4969838980163804E-014
   2.5500000000000002E-002     4.2037939953516461E-014
   2.5875000000000002E-002     1.1587448223931589E-013
   2.6250000000000002E-002     3.1350663950920699E-013
   2.6625000000000003E-002     8.3252612604004600E-013
   2.7000000000000003E-002     2.1698603517410512E-012
   2.7375000000000003E-002     5.5504570960973765E-012
   2.7750000000000004E-002     1.3933929434235691E-011
   2.8125000000000004E-002     3.4327914944234990E-011
   2.8500000000000004E-002     8.2991091228399229E-011
   2.8875000000000005E-002     1.9688172437283732E-010
   2.9250000000000005E-002     4.5829636257163760E-010
   2.9625000000000005E-002     1.0467195455005686E-009
   3.0000000000000006E-002     2.3455049556746974E-009
   3.0375000000000006E-002     5.1562130071909342E-009
   3.0750000000000000E-002     1.1119661476128718E-008
   3.1125000000000000E-002     2.3522318290769251E-008
   3.1500000000000000E-002     4.8805383390871432E-008
   3.1875000000000001E-002     9.9316353450508738E-008
   3.2250000000000001E-002     1.9819353783053849E-007
   3.2625000000000001E-002     3.8782815594169108E-007
   3.3000000000000002E-002     7.4408245029118777E-007
   3.3375000000000002E-002     1.3995385318233050E-006
   3.3750000000000002E-002     2.5803135935466464E-006
   3.4125000000000003E-002     4.6625695609113403E-006
   3.4500000000000003E-002     8.2560696388441029E-006
   3.4875000000000003E-002     1.4323256823150113E-005
   3.5250000000000004E-002     2.4341748431648744E-005
   3.5625000000000004E-002     4.0514377148480346E-005
   3.6000000000000004E-002     6.6025041044245983E-005
   3.6375000000000005E-002     1.0532634485071779E-004
   3.6750000000000005E-002     1.6442362229171297E-004
   3.7125000000000005E-002     2.5109686737830614E-004
   3.7500000000000006E-002     3.7497506708933099E-004
   3.7875000000000006E-002     5.4732720184331746E-004
   3.8250000000000006E-002     7.8047940210220412E-004
   3.8625000000000007E-002     1.0866008801553519E-003
   3.9000000000000000E-002     1.4759686813353439E-003
   3.9375000000000000E-002     1.9543465514176720E-003
   3.9750000000000001E-002     2.5201039314498054E-003
   4.0125000000000001E-002     3.1605644376212043E-003
   4.0500000000000001E-002     3.8492813936833164E-003
   4.0875000000000002E-002     4.5436564592314533E-003
   4.1250000000000002E-002     5.1846908302728874E-003
   4.1625000000000002E-002     5.6996104690833146E-003
   4.2000000000000003E-002     6.0073335708272311E-003
   4.2375000000000003E-002     6.0280090140042378E-003
   4.2750000000000003E-002     5.6955752053470046E-003
   4.3125000000000004E-002     4.9713098104369833E-003
   4.3500000000000004E-002     3.8569040456521309E-003
   4.3875000000000004E-002     2.4061965414967699E-003
   4.4250000000000005E-002     7.2670607144024102E-004
   4.4625000000000005E-002    -1.0260039907340746E-003
   4.5000000000000005E-002    -2.6615130171001693E-003
   4.5375000000000006E-002    -3.9868715455208120E-003
   4.5750000000000006E-002    -4.8332771639638065E-003
   4.6125000000000006E-002    -5.1006932231646533E-003
   4.6500000000000007E-002    -4.7826168165609924E-003
   4.6875000000000007E-002    -3.9952588005870088E-003
   4.7250000000000000E-002    -2.9764857646294883E-003
   4.7625000000000001E-002    -2.0722621457349359E-003
   4.8000000000000001E-002    -1.6938966294833386E-003
   4.8375000000000001E-002    -2.2638276260409252E-003
   4.8750000000000002E-002    -4.1446805961055655E-003
   4.9125000000000002E-002    -7.5703042410613028E-003
   4.9500000000000002E-002    -1.2591175112161970E-002
   4.9875000000000003E-002    -1.9035246638126148E-002
   5.0250000000000003E-002    -2.6512516289081710E-002
   5.0625000000000003E-002    -3.4431258459000580E-002
   5.1000000000000004E-002    -4.2076717165877214E-002
   5.1375000000000004E-002    -4.8669732427097517E-002
   5.1750000000000004E-002    -5.3483085629298405E-002
   5.2125000000000005E-002    -5.5913400571752050E-002
   5.2500000000000005E-002    -5.5559975100450382E-002
   5.2875000000000005E-002    -5.2267971998848375E-002
   5.3250000000000006E-002    -4.6138260268823103E-002
   5.3625000000000006E-002    -3.7504862866111141E-002
   5.4000000000000006E-002    -2.6889992254990752E-002
   5.4375000000000007E-002    -1.4926977352082274E-002
   5.4750000000000007E-002    -2.2839365343331770E-003
   5.5125000000000007E-002     1.0392488316238589E-002
   5.5500000000000008E-002     2.2560287774503529E-002
   5.5875000000000008E-002     3.3797337931363858E-002
   5.6250000000000008E-002     4.3828792892354418E-002
   5.6625000000000009E-002     5.2511580731175234E-002
   5.7000000000000009E-002     5.9817847353347414E-002
   5.7375000000000009E-002     6.5796294714274339E-002
   5.7750000000000010E-002     7.0537859032101774E-002
   5.8125000000000010E-002     7.4154140443532274E-002
   5.8500000000000010E-002     7.6732022135974326E-002
   5.8875000000000011E-002     7.8369769412941381E-002
   5.9250000000000011E-002     7.9120797179160929E-002
   5.9624999999999997E-002     7.9050359635680439E-002
   5.9999999999999998E-002     7.8223298520785245E-002
   6.0374999999999998E-002     7.6685650240621878E-002
   6.0749999999999998E-002     7.4509063358397132E-002
   6.1124999999999999E-002     7.1718043051290981E-002
   6.1499999999999999E-002     6.8298965231184505E-002
   6.1874999999999999E-002     6.4158941321718982E-002
   6.2250000000000000E-002     5.9112391235510695E-002
   6.2625000000000000E-002     5.2862018669988062E-002
   6.3000000000000000E-002     4.5043222214920894E-002
   6.3375000000000001E-002     3.5256322174124638E-002
   6.3750000000000001E-002     2.3135159332532147E-002
   6.4125000000000001E-002     8.4638886874685917E-003
   6.4500000000000002E-002    -8.7634943136869741E-003
   6.4875000000000002E-002    -2.8245553019401515E-002
   6.5250000000000002E-002    -4.9329898031640174E-002
   6.5625000000000003E-002    -7.1044376188151209E-002
   6.6000000000000003E-002    -9.2124677954181777E-002
   6.6375000000000003E-002   -0.11114832026081184     
   6.6750000000000004E-002   -0.12665863018423351     
   6.7125000000000004E-002   -0.13734816663064281     
   6.7500000000000004E-002   -0.14220919883068700     
   6.7875000000000005E-002   -0.14063898894618060     
   6.8250000000000005E-002   -0.13253763336672511     
   6.8625000000000005E-002   -0.11831150424900122     
   6.9000000000000006E-002    -9.8826678465899986E-002
   6.9375000000000006E-002    -7.5309299665818119E-002
   6.9750000000000006E-002    -4.9224783753452669E-002
   7.0125000000000007E-002    -2.2124927138420708E-002
   7.0500000000000007E-002     4.4707362876348460E-003
   7.0875000000000007E-002     2.9185353231441974E-002
   7.1250000000000008E-002     5.0847019140971200E-002
   7.1625000000000008E-002     6.8535757565167943E-002
   7.2000000000000008E-002     8.1555665103284936E-002
   7.2375000000000009E-002     8.9445618141590161E-002
   7.2750000000000009E-002     9.1952585937838893E-002
   7.3125000000000009E-002     8.8972053335979795E-002
   7.3500000000000010E-002     8.0625415917794374E-002
   7.3875000000000010E-002     6.7184173184952928E-002
   7.4250000000000010E-002     4.9129190886522178E-002
   7.4625000000000011E-002     2.7194505596047098E-002
   7.5000000000000011E-002     2.3166469159235994E-003
   7.5375000000000011E-002    -2.4334415531441923E-002
   7.5750000000000012E-002    -5.1383200172698679E-002
   7.6124999999999998E-002    -7.7360384848725150E-002
   7.6499999999999999E-002   -0.10075195624059241     
   7.6874999999999999E-002   -0.12010441809382189     
   7.7249999999999999E-002   -0.13419707705925826     
   7.7625000000000000E-002   -0.14205146534086355     
   7.8000000000000000E-002   -0.14311491603089294     
   7.8375000000000000E-002   -0.13722179654477734     
   7.8750000000000001E-002   -0.12465088003211297     
   7.9125000000000001E-002   -0.10611885988147293     
   7.9500000000000001E-002    -8.2602628733241770E-002
   7.9875000000000002E-002    -5.5381154805744348E-002
   8.0250000000000002E-002    -2.5763472842640342E-002
   8.0625000000000002E-002     4.8806193089862560E-003
   8.1000000000000003E-002     3.5361408650081957E-002
   8.1375000000000003E-002     6.4661569935321878E-002
   8.1750000000000003E-002     9.1980831694360249E-002
   8.2125000000000004E-002    0.11678150531223502     
   8.2500000000000004E-002    0.13863507278594106     
   8.2875000000000004E-002    0.15726812594063444     
   8.3250000000000005E-002    0.17237463763464234     
   8.3625000000000005E-002    0.18356780933359923     
   8.4000000000000005E-002    0.19034541710195563     
   8.4375000000000006E-002    0.19205177921382932     
   8.4750000000000006E-002    0.18794511091330535     
   8.5125000000000006E-002    0.17730026428020418     
   8.5500000000000007E-002    0.15952264019381895     
   8.5875000000000007E-002    0.13433483900188928     
   8.6250000000000007E-002    0.10195387149677934     
   8.6625000000000008E-002     6.3151320885565077E-002
   8.7000000000000008E-002     1.9406148328943065E-002
   8.7375000000000008E-002    -2.7185886213136695E-002
   8.7750000000000009E-002    -7.3939776722648037E-002
   8.8125000000000009E-002   -0.11777788623797747     
   8.8500000000000009E-002   -0.15551681356637248     
   8.8875000000000010E-002   -0.18408918983213768     
   8.9250000000000010E-002   -0.20094233739105061     
   8.9625000000000010E-002   -0.20426552045922686     
   9.0000000000000011E-002   -0.19327153831961702     
   9.0375000000000011E-002   -0.16838411703356787     
   9.0750000000000011E-002   -0.13123702218413708     
   9.1125000000000012E-002    -8.4650868833297185E-002
   9.1500000000000012E-002    -3.2381150984836231E-002
   9.1875000000000012E-002     2.1151590526174047E-002
   9.2250000000000013E-002     7.1298578359956150E-002
   9.2624999999999999E-002    0.11366889864455043     
   9.2999999999999999E-002    0.14454489823136180     
   9.3375000000000000E-002    0.16131106245220822     
   9.3750000000000000E-002    0.16271988789401137     
   9.4125000000000000E-002    0.14907051820751133     
   9.4500000000000001E-002    0.12213576047148109     
   9.4875000000000001E-002     8.5008507493893465E-002
   9.5250000000000001E-002     4.1688984470168042E-002
   9.5625000000000002E-002    -3.2944080746911825E-003
   9.6000000000000002E-002    -4.5441371760301830E-002
   9.6375000000000002E-002    -8.0704679645818012E-002
   9.6750000000000003E-002   -0.10596705591199151     
   9.7125000000000003E-002   -0.11927915081250084     
   9.7500000000000003E-002   -0.12002398178199078     
   9.7875000000000004E-002   -0.10897116567565135     
   9.8250000000000004E-002    -8.8022475336268419E-002
   9.8625000000000004E-002    -6.0115600942334188E-002
   9.9000000000000005E-002    -2.8712980959753727E-002
   9.9375000000000005E-002     2.4613169462336937E-003
   9.9750000000000005E-002     2.9852284815442255E-002
  0.10012500000000001          5.0546849208273292E-002
  0.10050000000000001          6.2354929869762127E-002
  0.10087500000000001          6.4295669688855403E-002
  0.10125000000000001          5.6470657833526672E-002
  0.10162500000000001          4.0121400701701608E-002
  0.10200000000000001          1.7471813515357190E-002
  0.10237500000000001         -8.6281918450742019E-003
  0.10275000000000001         -3.4983597711661277E-002
  0.10312500000000001         -5.8499231772983440E-002
  0.10350000000000001         -7.6525640312020082E-002
  0.10387500000000001         -8.7166408838971088E-002
  0.10425000000000001         -8.9388969914266814E-002
  0.10462500000000001         -8.3177524407624298E-002
  0.10500000000000001         -6.9311633446277485E-002
  0.10537500000000001         -4.9298330843589075E-002
  0.10575000000000001         -2.5008748223468588E-002
  0.10612500000000001          1.4953533407649419E-003
  0.10650000000000001          2.8200254457940929E-002
  0.10687500000000001          5.3372368490507416E-002
  0.10725000000000001          7.5489861953949688E-002
  0.10762500000000001          9.3414340200654977E-002
  0.10800000000000001         0.10626887228292661     
  0.10837500000000001         0.11334741729524545     
  0.10875000000000001         0.11423855909455696     
  0.10912500000000000         0.10862864842371961     
  0.10950000000000000          9.6468721317686190E-002
  0.10987500000000000          7.7978022499159735E-002
  0.11025000000000000          5.3702805135169535E-002
  0.11062500000000001          2.4649971946444867E-002
  0.11100000000000000         -7.8402431317987145E-003
  0.11137500000000002         -4.1966992398771233E-002
  0.11175000000000000         -7.5626435536503694E-002
  0.11212500000000002        -0.10660633963035115     
  0.11250000000000000        -0.13261045376039782     
  0.11287500000000002        -0.15158243428983842     
  0.11325000000000000        -0.16185805824401278     
  0.11362500000000002        -0.16226002600293449     
  0.11400000000000000        -0.15231358567354952     
  0.11437500000000002        -0.13226950730936779     
  0.11475000000000000        -0.10309314095208902     
  0.11512500000000002         -6.6463931418889483E-002
  0.11550000000000001         -2.4652166235297077E-002
  0.11587500000000002          1.9638345371888050E-002
  0.11625000000000001          6.3418111402553573E-002
  0.11662500000000002         0.10362421658562310     
  0.11700000000000001         0.13733508781823978     
  0.11737499999999999         0.16199446679848778     
  0.11775000000000001         0.17553287639148968     
  0.11812499999999999         0.17669359834892451     
  0.11850000000000001         0.16508715384956590     
  0.11887499999999999         0.14125987292673056     
  0.11925000000000001         0.10689899895392252     
  0.11962500000000000          6.4576190237161296E-002
  0.12000000000000001          1.7781793225572287E-002
  0.12037500000000000         -2.9455846968859653E-002
  0.12075000000000001         -7.2798196242869539E-002
  0.12112500000000000        -0.10817676746705579     
  0.12150000000000001        -0.13201303945545470     
  0.12187500000000000        -0.14183776437882467     
  0.12225000000000001        -0.13648983118872418     
  0.12262500000000000        -0.11633087407165121     
  0.12300000000000001         -8.3249960507520648E-002
  0.12337500000000000         -4.0421809779689052E-002
  0.12375000000000001          7.9302144347811465E-003
  0.12412500000000000          5.7230860533238025E-002
  0.12450000000000001         0.10281919613525978     
  0.12487500000000000         0.14072195806270926     
  0.12525000000000003         0.16787479887973611     
  0.12562499999999999         0.18245772267514471     
  0.12600000000000000         0.18400136232019271     
  0.12637500000000002         0.17325908114645916     
  0.12675000000000003         0.15204738260439762     
  0.12712499999999999         0.12283656204506804     
  0.12750000000000000          8.8492689436526301E-002
  0.12787500000000002          5.1846252256894834E-002
  0.12825000000000003          1.5409781773788211E-002
  0.12862499999999999         -1.8782378086285148E-002
  0.12900000000000000         -4.9577484211139437E-002
  0.12937500000000002         -7.6344008638449937E-002
  0.12975000000000003         -9.9423530808482707E-002
  0.13012499999999999        -0.11966297100154305     
  0.13050000000000000        -0.13843059154072967     
  0.13087500000000002        -0.15734256713013461     
  0.13125000000000003        -0.17793873004294969     
  0.13162499999999999        -0.20149360741431965     
  0.13200000000000001        -0.22861128873501069     
  0.13237500000000002        -0.25917764712296232     
  0.13275000000000003        -0.29197492112902512     
  0.13312499999999999        -0.32489924457226271     
  0.13350000000000001        -0.35483104502074747     
  0.13387500000000002        -0.37794902296102695     
  0.13424999999999998        -0.39000186242429424     
  0.13462499999999999        -0.38667993082989577     
  0.13500000000000001        -0.36408785191173759     
  0.13537500000000002        -0.31918786977599845     
  0.13574999999999998        -0.25015683192459298     
  0.13612500000000000        -0.15673071280677514     
  0.13650000000000001         -4.0526724711037909E-002
  0.13687500000000002          9.4975450254383365E-002
  0.13724999999999998         0.24445462315190930     
  0.13762500000000000         0.40090311313392213     
  0.13800000000000001         0.55608350604220802     
  0.13837500000000003         0.70094305856005090     
  0.13874999999999998         0.82634445434828141     
  0.13912500000000000         0.92364519173656445     
  0.13950000000000001         0.98554264300990346     
  0.13987500000000003          1.0064592616566779     
  0.14024999999999999         0.98328411825160233     
  0.14062500000000000         0.91545343369853072     
  0.14100000000000001         0.80515282063349303     
  0.14137500000000003         0.65691416375760148     
  0.14174999999999999         0.47733199745300814     
  0.14212500000000000         0.27455849887197992     
  0.14250000000000002          5.7432175398597241E-002
  0.14287500000000003        -0.16468825705518642     
  0.14324999999999999        -0.38275201983394935     
  0.14362500000000000        -0.58808668444133705     
  0.14400000000000002        -0.77241239660802807     
  0.14437500000000003        -0.92812266241704222     
  0.14474999999999999         -1.0481931518432410     
  0.14512500000000000         -1.1261292837282300     
  0.14550000000000002         -1.1565267250251652     
  0.14587500000000003         -1.1354485948568487     
  0.14624999999999999         -1.0610912510013706     
  0.14662500000000001        -0.93450791631312047     
  0.14700000000000002        -0.76042640626220614     
  0.14737500000000003        -0.54726720816801921     
  0.14774999999999999        -0.30742283185220121     
  0.14812500000000001         -5.6490734172649493E-002
  0.14850000000000002         0.18800485699467484     
  0.14887500000000004         0.40799196021495965     
  0.14924999999999999         0.58689573019129071     
  0.14962500000000001         0.71139526402353659     
  0.15000000000000002         0.77303911556505067     
  0.15037499999999998         0.76941391140304294     
  0.15075000000000000         0.70411688634121294     
  0.15112500000000001         0.58681620934838286     
  0.15150000000000002         0.43172368686515239     
  0.15187499999999998         0.25619157213277854     
  0.15225000000000000          7.8571858833195951E-002
  0.15262500000000001         -8.3757992275672155E-002
  0.15300000000000002        -0.21611986538161121     
  0.15337499999999998        -0.30820204078564228     
  0.15375000000000000        -0.35437432912758626     
  0.15412500000000001        -0.35448650211563493     
  0.15450000000000003        -0.31303727043622820     
  0.15487499999999998        -0.23836672952307236     
  0.15525000000000000        -0.14156091299428625     
  0.15562500000000001         -3.4782025077867595E-002
  0.15600000000000003          7.0174844611337731E-002
  0.15637499999999999         0.16317778397630445     
  0.15675000000000000         0.23671430524248849     
  0.15712500000000001         0.28676648935560101     
  0.15750000000000003         0.31234261308753508     
  0.15787499999999999         0.31572595884880772     
  0.15825000000000000         0.30134889094586848     
  0.15862500000000002         0.27464376472916274     
  0.15900000000000003         0.24127162946851954     
  0.15937499999999999         0.20566845996834582     
  0.15975000000000000         0.17084217785048711     
  0.16012500000000002         0.13752661934272656     
  0.16050000000000003         0.10486786323974714     
  0.16087499999999999          7.0640176495491480E-002
  0.16125000000000000          3.2139570726592848E-002
  0.16162500000000002         -1.2467359069810557E-002
  0.16200000000000003         -6.3920227655105327E-002
  0.16237499999999999        -0.12096951682813017     
  0.16275000000000001        -0.18010596316260100     
  0.16312500000000002        -0.23637101429342522     
  0.16350000000000003        -0.28364679894656397     
  0.16387499999999999        -0.31583648269071207     
  0.16425000000000001        -0.32796042084126664     
  0.16462500000000002        -0.31686690822000652     
  0.16500000000000004        -0.28207001886171013     
  0.16537499999999999        -0.22577888808630420     
  0.16575000000000001        -0.15270159199318023     
  0.16612500000000002         -6.9589500330169363E-002
  0.16650000000000004          1.6107919511094859E-002
  0.16687500000000000          9.6429067264472978E-002
  0.16725000000000001         0.16459704604437650     
  0.16762500000000002         0.21529216512147764     
  0.16799999999999998         0.24494315210940587     
  0.16837500000000000         0.25243456559786953     
  0.16875000000000001         0.23814827161678798     
  0.16912500000000003         0.20445770432768648     
  0.16949999999999998         0.15491452554733576     
  0.16987500000000000          9.3901108503658404E-002
  0.17025000000000001          2.6432968750457919E-002
  0.17062500000000003         -4.2241839724762531E-002
  0.17099999999999999        -0.10684129733700559     
  0.17137500000000000        -0.16224606647619327     
  0.17175000000000001        -0.20393595468444820     
  0.17212500000000003        -0.22830085787578636     
  0.17249999999999999        -0.23270745386377334     
  0.17287500000000000        -0.21641258440307859     
  0.17325000000000002        -0.18031529151759895     
  0.17362500000000003        -0.12736753712672871     
  0.17399999999999999         -6.2339370909223840E-002
  0.17437500000000000          8.6297063424007892E-003
  0.17475000000000002          7.8503267068632018E-002
  0.17512500000000003         0.14022296863903747     
  0.17549999999999999         0.18745861453087342     
  0.17587500000000000         0.21557274570728530     
  0.17625000000000002         0.22199399650539503     
  0.17662500000000003         0.20656774842397868     
  0.17699999999999999         0.17174537044028942     
  0.17737500000000000         0.12192826654112199     
  0.17775000000000002          6.3129044994322897E-002
  0.17812500000000003          1.9045537864424700E-003
  0.17849999999999999         -5.5329891570809059E-002
  0.17887500000000001        -0.10320388991299267     
  0.17925000000000002        -0.13785702236156430     
  0.17962500000000003        -0.15751392778843570     
  0.17999999999999999        -0.16229816560918708     
  0.18037500000000001        -0.15402712646440295     
  0.18075000000000002        -0.13585974755531438     
  0.18112500000000004        -0.11149322885380269     
  0.18149999999999999         -8.4723142893237069E-002
  0.18187500000000001         -5.8787507993690730E-002
  0.18225000000000002         -3.6066654391212385E-002
  0.18262500000000004         -1.7729866998169364E-002
  0.18300000000000000         -4.2188308287568546E-003
  0.18337500000000001          5.2034001007336189E-003
  0.18375000000000002          1.1611479389642122E-002
  0.18412499999999998          1.6146236992953797E-002
  0.18450000000000000          2.0275184268873869E-002
  0.18487500000000001          2.4596789109832921E-002
  0.18525000000000003          2.9716049956546906E-002
  0.18562499999999998          3.5697003724330503E-002
  0.18600000000000000          4.2212567910813500E-002
  0.18637500000000001          4.8949045038992112E-002
  0.18675000000000003          5.5419882435470497E-002
  0.18712499999999999          6.1302458737015009E-002
  0.18750000000000000          6.6381652586276541E-002
  0.18787500000000001          7.0531584191572266E-002
  0.18825000000000003          7.3731555770807478E-002
  0.18862499999999999          7.5964597911076182E-002
  0.18900000000000000          7.7118093653029102E-002