  -1.4999999999999999E-002     0.0000000000000000     
  -1.4624999999999999E-002     0.0000000000000000     
  -1.4249999999999999E-002     0.0000000000000000     
  -1.3874999999999998E-002     0.0000000000000000     
  -1.3500000000000000E-002     0.0000000000000000     
  -1.3125000000000000E-002     0.0000000000000000     
  -1.2749999999999999E-002     0.0000000000000000     
  -1.2374999999999999E-002     0.0000000000000000     
  -1.2000000000000000E-002     0.0000000000000000     
  -1.1625000000000000E-002     0.0000000000000000     
  -1.1250000000000000E-002     0.0000000000000000     
  -1.0874999999999999E-002     0.0000000000000000     
  -1.0499999999999999E-002     0.0000000000000000     
  -1.0124999999999999E-002     0.0000000000000000     
  -9.7499999999999983E-003     0.0000000000000000     
  -9.3749999999999979E-003     0.0000000000000000     
  -8.9999999999999993E-003     0.0000000000000000     
  -8.6249999999999990E-003     0.0000000000000000     
  -8.2500000000000004E-003     0.0000000000000000     
  -7.8750000000000001E-003     0.0000000000000000     
  -7.4999999999999989E-003     0.0000000000000000     
  -7.1249999999999994E-003     0.0000000000000000     
  -6.7499999999999991E-003     0.0000000000000000     
  -6.3749999999999987E-003     0.0000000000000000     
  -5.9999999999999984E-003     2.8423799701740503E-037
  -5.6249999999999998E-003    -7.5328105248228135E-036
  -5.2499999999999995E-003     2.7482706808568671E-035
  -4.8749999999999991E-003    -5.0469534736381390E-035
  -4.4999999999999988E-003    -7.9688993285261955E-034
  -4.1249999999999985E-003     9.5783219690045953E-033
  -3.7499999999999981E-003    -2.8560540222850218E-032
  -3.3749999999999995E-003     4.7045982480512259E-032
  -2.9999999999999992E-003    -2.3671878480314139E-032
  -2.6249999999999989E-003    -1.1452120398493417E-031
  -2.2499999999999985E-003     4.2250565304323029E-031
  -1.8749999999999982E-003    -8.8815151091728174E-031
  -1.4999999999999996E-003     1.4803609138825380E-030
  -1.1249999999999993E-003    -2.3414440541196429E-030
  -7.4999999999999893E-004     3.8865417211877618E-030
  -3.7499999999999860E-004    -6.3528688166423474E-030
   1.7347234759768071E-018     8.9080015132985833E-030
   3.7500000000000207E-004    -9.7781902172627791E-030
   7.5000000000000067E-004     9.2141609169627300E-030
   1.1250000000000010E-003    -1.4252413685169999E-029
   1.5000000000000013E-003     3.8860292261524524E-029
   1.8750000000000017E-003    -9.3643222812418100E-029
   2.2500000000000020E-003     1.8493162913626775E-028
   2.6250000000000023E-003    -3.5020643206812574E-028
   3.0000000000000027E-003     5.3451214031307706E-028
   3.3750000000000030E-003     2.7963767994311119E-028
   3.7499999999999999E-003    -5.5834591811270586E-027
   4.1250000000000002E-003     2.0195120731913178E-026
   4.5000000000000005E-003    -4.4346869219637807E-026
   4.8750000000000009E-003     5.7091348666210270E-026
   5.2500000000000012E-003     6.9363064875543714E-026
   5.6250000000000015E-003     1.0550517939890988E-023
   6.0000000000000019E-003     3.1688508993955400E-023
   6.3750000000000022E-003     1.2785058128502441E-022
   6.7500000000000025E-003     4.7875815114559091E-022
   7.1250000000000029E-003     1.7785491801673143E-021
   7.5000000000000032E-003     6.5384860471336902E-021
   7.8750000000000001E-003     2.3598632879579842E-020
   8.2500000000000004E-003     8.3016617708533479E-020
   8.6250000000000007E-003     2.8900010430453768E-019
   9.0000000000000011E-003     9.8390821089747209E-019
   9.3750000000000014E-003     3.2883923083801648E-018
   9.7500000000000017E-003     1.0809376275499544E-017
   1.0125000000000002E-002     3.4826376417957684E-017
   1.0500000000000002E-002     1.1024609456844697E-016
   1.0875000000000003E-002     3.4250577138277347E-016
   1.1250000000000003E-002     1.0446468608171466E-015
   1.1625000000000003E-002     3.1276160826801376E-015
   1.2000000000000000E-002     9.1914882047560772E-015
   1.2375000000000001E-002     2.6516475309314267E-014
   1.2750000000000001E-002     7.5079372080430686E-014
   1.3125000000000001E-002     2.0866466723715473E-013
   1.3500000000000002E-002     5.6918460182116185E-013
   1.3875000000000002E-002     1.5237483043273147E-012
   1.4250000000000002E-002     4.0034779980645616E-012
   1.4625000000000003E-002     1.0322265528098557E-011
   1.5000000000000003E-002     2.6117500738783614E-011
   1.5375000000000003E-002     6.4843777693917572E-011
   1.5750000000000004E-002     1.5796780423002688E-010
   1.6125000000000000E-002     3.7758102218839704E-010
   1.6500000000000001E-002     8.8543666281546018E-010
   1.6875000000000001E-002     2.0369960419149798E-009
   1.7250000000000001E-002     4.5969259475869488E-009
   1.7625000000000002E-002     1.0175687245980107E-008
   1.8000000000000002E-002     2.2091993528284997E-008
   1.8375000000000002E-002     4.7037312984736715E-008
   1.8750000000000003E-002     9.8206939538872426E-008
   1.9125000000000003E-002     2.0104074935820888E-007
   1.9500000000000003E-002     4.0347313588341607E-007
   1.9875000000000004E-002     7.9373780396127751E-007
   2.0250000000000004E-002     1.5303791483133187E-006
   2.0625000000000004E-002     2.8914395838869486E-006
   2.1000000000000005E-002     5.3522458200615572E-006
   2.1375000000000005E-002     9.7046028678670023E-006
   2.1750000000000005E-002     1.7231734910359725E-005
   2.2125000000000006E-002     2.9955739270121492E-005
   2.2499999999999999E-002     5.0967486756886779E-005
   2.2875000000000000E-002     8.4842618215514708E-005
   2.3250000000000000E-002     1.3812407656395244E-004
   2.3625000000000000E-002     2.1980820660978537E-004
   2.4000000000000000E-002     3.4174592368078156E-004
   2.4375000000000001E-002     5.1873170475194206E-004
   2.4750000000000001E-002     7.6810652797389004E-004
   2.5125000000000001E-002     1.1083969148514988E-003
   2.5500000000000002E-002     1.5568267142160642E-003
   2.5875000000000002E-002     2.1249702847011692E-003
   2.6250000000000002E-002     2.8129231829918944E-003
   2.6625000000000003E-002     3.6010947015907716E-003
   2.7000000000000003E-002     4.4413790094936026E-003
   2.7375000000000003E-002     5.2476855111185123E-003
   2.7750000000000004E-002     5.8880489805577096E-003
   2.8125000000000004E-002     6.1817020731068217E-003
   2.8500000000000004E-002     5.9019240761638576E-003
   2.8875000000000005E-002     4.7916469875109620E-003
   2.9250000000000005E-002     2.5868824459228598E-003
   2.9625000000000005E-002    -9.4084483343141907E-004
   3.0000000000000006E-002    -5.9393966210154522E-003
   3.0375000000000006E-002    -1.2414495366575636E-002
   3.0750000000000000E-002    -2.0186952272403413E-002
   3.1125000000000000E-002    -2.8844014136834753E-002
   3.1500000000000000E-002    -3.7738190848969302E-002
   3.1875000000000001E-002    -4.6001748260535061E-002
   3.2250000000000001E-002    -5.2627798165685732E-002
   3.2625000000000001E-002    -5.6562415204854818E-002
   3.3000000000000002E-002    -5.6869382814227779E-002
   3.3375000000000002E-002    -5.2866663727236834E-002
   3.3750000000000002E-002    -4.4291800819601254E-002
   3.4125000000000003E-002    -3.1384085196283953E-002
   3.4500000000000003E-002    -1.4942763619020385E-002
   3.4875000000000003E-002     3.7372555930838477E-003
   3.5250000000000004E-002     2.3007941103501375E-002
   3.5625000000000004E-002     4.1083106104479503E-002
   3.6000000000000004E-002     5.6299769002779818E-002
   3.6375000000000005E-002     6.7404760349915577E-002
   3.6750000000000005E-002     7.3758647305269431E-002
   3.7125000000000005E-002     7.5458158435863620E-002
   3.7500000000000006E-002     7.3331920784181104E-002
   3.7875000000000006E-002     6.8780620530309783E-002
   3.8250000000000006E-002     6.3491232939490022E-002
   3.8625000000000007E-002     5.9067995827596226E-002
   3.9000000000000000E-002     5.6642736931566171E-002
   3.9375000000000000E-002     5.6556971151796490E-002
   3.9750000000000001E-002     5.8099434207318709E-002
   4.0125000000000001E-002     5.9591826804467826E-002
   4.0500000000000001E-002     5.8477763431419486E-002
   4.0875000000000002E-002     5.1818886157512747E-002
   4.1250000000000002E-002     3.6806065661306758E-002
   4.1625000000000002E-002     1.1445896538047395E-002
   4.2000000000000003E-002    -2.4869224621344624E-002
   4.2375000000000003E-002    -7.0870655714082034E-002
   4.2750000000000003E-002   -0.12315343595574363     
   4.3125000000000004E-002   -0.17643705497348530     
   4.3500000000000004E-002   -0.22379151065709363     
   4.3875000000000004E-002   -0.25765011468548615     
   4.4250000000000005E-002   -0.27072563678203987     
   4.4625000000000005E-002   -0.25713386134027838     
   4.5000000000000005E-002   -0.21357126657637288     
   4.5375000000000006E-002   -0.14001504008692736     
   4.5750000000000006E-002    -4.0299016774071827E-002
   4.6125000000000006E-002     7.8153785204590376E-002
   4.6500000000000007E-002    0.20475327616320566     
   4.6875000000000007E-002    0.32711537496098586     
   4.7250000000000000E-002    0.43239614258413983     
   4.7625000000000001E-002    0.50903569386605940     
   4.8000000000000001E-002    0.54836508733724143     
   4.8375000000000001E-002    0.54573166822367902     
   4.8750000000000002E-002    0.50130218740040511     
   4.9125000000000002E-002    0.41998321881187972     
   4.9500000000000002E-002    0.31079258165338319     
   4.9875000000000003E-002    0.18557805767213201     
   5.0250000000000003E-002     5.7364902097760684E-002
   5.0625000000000003E-002    -6.1432690987643437E-002
   5.1000000000000004E-002   -0.16078741439473460     
   5.1375000000000004E-002   -0.23415580230795038     
   5.1750000000000004E-002   -0.27943850523242941     
   5.2125000000000005E-002   -0.29890934294482102     
   5.2500000000000005E-002   -0.29866607703248227     
   5.2875000000000005E-002   -0.28760998613202526     
   5.3250000000000006E-002   -0.27591763840119121     
   5.3625000000000006E-002   -0.27334223660365076     
   5.4000000000000006E-002   -0.28782233850328703     
   5.4375000000000007E-002   -0.32405886936159523     
   5.4750000000000007E-002   -0.38265818823008207     
   5.5125000000000007E-002   -0.46001726478979382     
   5.5500000000000008E-002   -0.54831626668571554     
   5.5875000000000008E-002   -0.63659120835959659     
   5.6250000000000008E-002   -0.71185122130029521     
   5.6625000000000009E-002   -0.76073844376821298     
   5.7000000000000009E-002   -0.77120750635953561     
   5.7375000000000009E-002   -0.73405002710959844     
   5.7750000000000010E-002   -0.64433260577058582     
   5.8125000000000010E-002   -0.50210124064493922     
   5.8500000000000010E-002   -0.31284393567223079     
   5.8875000000000011E-002    -8.6944901547876485E-002
   5.9250000000000011E-002    0.16114693788716616     
   5.9624999999999997E-002    0.41424469648910300     
   5.9999999999999998E-002    0.65428847178036365     
   6.0374999999999998E-002    0.86416112990878891     
   6.0749999999999998E-002     1.0292132361513746     
   6.1124999999999999E-002     1.1388433956372777     
   6.1499999999999999E-002     1.1875108594143899     
   6.1874999999999999E-002     1.1744975332964320     
   6.2250000000000000E-002     1.1045217397364961     
   6.2625000000000000E-002    0.98626858608685897     
   6.3000000000000000E-002    0.83135230933257431     
   6.3375000000000001E-002    0.65342012470983013     
   6.3750000000000001E-002    0.46594213308280552     
   6.4125000000000001E-002    0.28160824827025371     
   6.4500000000000002E-002    0.11098717897377747     
   6.4875000000000002E-002    -3.7998142842644245E-002
   6.5250000000000002E-002   -0.16006940238647827     
   6.5625000000000003E-002   -0.25270621319413528     
   6.6000000000000003E-002   -0.31556101885160448     
   6.6375000000000003E-002   -0.34975512369741435     
   6.6750000000000004E-002   -0.35757463207448226     
   6.7125000000000004E-002   -0.34193086034409476     
   6.7500000000000004E-002   -0.30578915000675866     
   6.7875000000000005E-002   -0.25271380427044587     
   6.8250000000000005E-002   -0.18658114930435160     
   6.8625000000000005E-002   -0.11226625437155191     
   6.9000000000000006E-002    -3.5834312115092692E-002
   6.9375000000000006E-002     3.4862973410078740E-002
   6.9750000000000006E-002     9.0690983617619542E-002
   7.0125000000000007E-002    0.12084364824205628     
   7.0500000000000007E-002    0.11458760440268363     
   7.0875000000000007E-002     6.2263744102259572E-002
   7.1250000000000008E-002    -4.2726447452431482E-002
   7.1625000000000008E-002   -0.20142117940045370     
   7.2000000000000008E-002   -0.40764339194636096     
   7.2375000000000009E-002   -0.64656383265143624     
   7.2750000000000009E-002   -0.89421864053587252     
   7.3125000000000009E-002    -1.1193396454781355     
   7.3500000000000010E-002    -1.2859336162190464     
   7.3875000000000010E-002    -1.3580077061730147     
   7.4250000000000010E-002    -1.3051803823688528     
   7.4625000000000011E-002    -1.1084569662399986     
   7.5000000000000011E-002   -0.76505427565220518     
   7.5375000000000011E-002   -0.29166605948746405     
   7.5750000000000012E-002    0.27527351105164399     
   7.6124999999999998E-002    0.88211148545903573     
   7.6499999999999999E-002     1.4638280090579614     
   7.6874999999999999E-002     1.9518177802933292     
   7.7249999999999999E-002     2.2829433079525936     
   7.7625000000000000E-002     2.4084089958988519     
   7.8000000000000000E-002     2.3009953330985136     
   7.8375000000000000E-002     1.9589586756010373     
   7.8750000000000001E-002     1.4073306266265373     
   7.9125000000000001E-002    0.69480567867502696     
   7.9500000000000001E-002   -0.11233124347926804     
   7.9875000000000002E-002   -0.93763628719890546     
   8.0250000000000002E-002    -1.7043259529281656     
   8.0625000000000002E-002    -2.3430897807525453     
   8.1000000000000003E-002    -2.7993167528835174     
   8.1375000000000003E-002    -3.0382168632859523     
   8.1750000000000003E-002    -3.0461372560232114     
   8.2125000000000004E-002    -2.8307085140019592     
   8.2500000000000004E-002    -2.4176881448387757     
   8.2875000000000004E-002    -1.8468275664786225     
   8.3250000000000005E-002    -1.1667892338115813     
   8.3625000000000005E-002   -0.42964672824999717     
   8.4000000000000005E-002    0.31337504765362301     
   8.4375000000000006E-002     1.0162607089596163     
   8.4750000000000006E-002     1.6407793732154523     
   8.5125000000000006E-002     2.1579479368788599     
   8.5500000000000007E-002     2.5487302601030413     
   8.5875000000000007E-002     2.8038472126136069     
   8.6250000000000007E-002     2.9224963212918125     
   8.6625000000000008E-002     2.9109259918240724     
   8.7000000000000008E-002     2.7813549626046639     
   8.7375000000000008E-002     2.5498100389976113     
   8.7750000000000009E-002     2.2347552132959638     
   8.8125000000000009E-002     1.8561529478558829     
   8.8500000000000009E-002     1.4338682038902233     
   8.8875000000000010E-002    0.98715999877147409     
   8.9250000000000010E-002    0.53375171246753750     
   8.9625000000000010E-002     8.9822755927255304E-002
   9.0000000000000011E-002   -0.33114960955348360     
   9.0375000000000011E-002   -0.71761989262455050     
   9.0750000000000011E-002    -1.0604575813908959     
   9.1125000000000012E-002    -1.3532591096602307     
   9.1500000000000012E-002    -1.5914598526490107     
   9.1875000000000012E-002    -1.7728999475234462     
   9.2250000000000013E-002    -1.8970559192205574     
   9.2624999999999999E-002    -1.9652808542542282     
   9.2999999999999999E-002    -1.9802737256289276     
   9.3375000000000000E-002    -1.9457818049108768     
   9.3750000000000000E-002    -1.8666903848757936     
   9.4125000000000000E-002    -1.7482566265078061     
   9.4500000000000001E-002    -1.5966431168337869     
   9.4875000000000001E-002    -1.4175288517529232     
   9.5250000000000001E-002    -1.2173296954398991     
   9.5625000000000002E-002    -1.0018056186142195     
   9.6000000000000002E-002   -0.77675923445836248     
   9.6375000000000002E-002   -0.54757999755905384     
   9.6750000000000003E-002   -0.31911959463594575     
   9.7125000000000003E-002    -9.6222750137147317E-002
   9.7500000000000003E-002    0.11726825249408446     
   9.7875000000000004E-002    0.31762621424872756     
   9.8250000000000004E-002    0.50158583322216987     
   9.8625000000000004E-002    0.66664198488170090     
   9.9000000000000005E-002    0.81069902179227404     
   9.9375000000000005E-002    0.93184066935843357     
   9.9750000000000005E-002     1.0291110754217834     
  0.10012500000000001          1.1019484835125151     
  0.10050000000000001          1.1499883477786237     
  0.10087500000000001          1.1737195501912425     
  0.10125000000000001          1.1740011666526988     
  0.10162500000000001          1.1520828017565390     
  0.10200000000000001          1.1096167130923558     
  0.10237500000000001          1.0486612938048121     
  0.10275000000000001         0.97159514533812752     
  0.10312500000000001         0.88074069429404878     
  0.10350000000000001         0.77884963251475803     
  0.10387500000000001         0.66849492923493514     
  0.10425000000000001         0.55222386951436386     
  0.10462500000000001         0.43260493341925671     
  0.10500000000000001         0.31192532376507742     
  0.10537500000000001         0.19236624801034791     
  0.10575000000000001          7.5954777442547750E-002
  0.10612500000000001         -3.5741053506759490E-002
  0.10650000000000001        -0.14099634025240462     
  0.10687500000000001        -0.23862631294629605     
  0.10725000000000001        -0.32757136628048211     
  0.10762500000000001        -0.40677060046327679     
  0.10800000000000001        -0.47575863749588487     
  0.10837500000000001        -0.53368492371648257     
  0.10875000000000001        -0.58042897288158746     
  0.10912500000000000        -0.61570481674582189     
  0.10950000000000000        -0.63938768559209480     
  0.10987500000000000        -0.65186424884621075     
  0.11025000000000000        -0.65336468528574598     
  0.11062500000000001        -0.64439934500433727     
  0.11100000000000000        -0.62578713109812290     
  0.11137500000000002        -0.59838707613816089     
  0.11175000000000000        -0.56311236816412791     
  0.11212500000000002        -0.52099616957421735     
  0.11250000000000000        -0.47338935025091300     
  0.11287500000000002        -0.42123855258209986     
  0.11325000000000000        -0.36557898018028945     
  0.11362500000000002        -0.30781514309440217     
  0.11400000000000000        -0.24854537408115579     
  0.11437500000000002        -0.18887882612594098     
  0.11475000000000000        -0.12962334035442113     
  0.11512500000000002         -7.1315240466245100E-002
  0.11550000000000001         -1.4696444071720105E-002
  0.11587500000000002          3.9753228737735624E-002
  0.11625000000000001          9.1510146711778803E-002
  0.11662500000000002         0.14026475722979220     
  0.11700000000000001         0.18535802321078687     
  0.11737499999999999         0.22656471313806653     
  0.11775000000000001         0.26342768214257101     
  0.11812499999999999         0.29542667962852415     
  0.11850000000000001         0.32243033623596251     
  0.11887499999999999         0.34401204277699737     
  0.11925000000000001         0.35984962920677632     
  0.11962500000000000         0.36997604472020240     
  0.12000000000000001         0.37428801567585057     
  0.12037500000000000         0.37284327061648248     
  0.12075000000000001         0.36582923455284566     
  0.12112500000000000         0.35380803969381036     
  0.12150000000000001         0.33693598225607579     
  0.12187500000000000         0.31590509256666743     
  0.12225000000000001         0.29129465030500168     
  0.12262500000000000         0.26381652142457335     
  0.12300000000000001         0.23388668487374575     
  0.12337500000000000         0.20223589782830809     
  0.12375000000000001         0.16951518528575404     
  0.12412500000000000         0.13583424700168281     
  0.12450000000000001         0.10199939482732186     
  0.12487500000000000          6.8077025761027490E-002
  0.12525000000000003          3.4529558061087595E-002
  0.12562499999999999          1.6257192003236443E-003
  0.12600000000000000         -3.0354733380308058E-002
  0.12637500000000002         -6.1022573072583387E-002
  0.12675000000000003         -9.0136624872373519E-002
  0.12712499999999999        -0.11726875766833819     
  0.12750000000000000        -0.14211378966118010     
  0.12787500000000002        -0.16419351330846343     
  0.12825000000000003        -0.18336434306809957     
  0.12862499999999999        -0.19918510945007972     
  0.12900000000000000        -0.21140786249915000     
  0.12937500000000002        -0.22002862309124666     
  0.12975000000000003        -0.22497921721525854     
  0.13012499999999999        -0.22634074816509181     
  0.13050000000000000        -0.22424840647353350     
  0.13087500000000002        -0.21915651138416192     
  0.13125000000000003        -0.21136213313672580     
  0.13162499999999999        -0.20109796746463521     
  0.13200000000000001        -0.18895481620378984     
  0.13237500000000002        -0.17517166808918572     
  0.13275000000000003        -0.16005378558696881     
  0.13312499999999999        -0.14389587811987881     
  0.13350000000000001        -0.12692270139158307     
  0.13387500000000002        -0.10915228258191220     
  0.13424999999999998         -9.0833740516850919E-002
  0.13462499999999999         -7.2004398251619750E-002
  0.13500000000000001         -5.2679055644225453E-002
  0.13537500000000002         -3.3181309131377686E-002
  0.13574999999999998         -1.3305519030933161E-002
  0.13612500000000000          6.3685569685730942E-003
  0.13650000000000001          2.5709098684470806E-002
  0.13687500000000002          4.4556264769797752E-002
  0.13724999999999998          6.2371600344145378E-002
  0.13762500000000000          7.8872967685199427E-002
  0.13800000000000001          9.3750414161755863E-002
  0.13837500000000003         0.10675904173075962     
  0.13874999999999998         0.11767683172055585     
  0.13912500000000000         0.12631931722378442     
  0.13950000000000001         0.13281707024639422     
  0.13987500000000003         0.13709999948943208     
  0.14024999999999999         0.13920574972990329     
  0.14062500000000000         0.13963289692592179     
  0.14100000000000001         0.13819477503177513     
  0.14137500000000003         0.13532668112856694     
  0.14174999999999999         0.13126738042843994     
  0.14212500000000000         0.12593040689410107     
  0.14250000000000002         0.11972257991592095     
  0.14287500000000003         0.11253300573190489     
  0.14324999999999999         0.10428187300621883     
  0.14362500000000000          9.5275577635106801E-002
  0.14400000000000002          8.5227125911196966E-002
  0.14437500000000003          7.4137449653892351E-002
  0.14474999999999999          6.2320965260374089E-002
  0.14512500000000000          4.9578492257069687E-002
  0.14550000000000002          3.6200324261273467E-002
  0.14587500000000003          2.2475972896275610E-002
  0.14624999999999999          8.4665685788568451E-003
  0.14662500000000001         -5.3935778180653968E-003
  0.14700000000000002         -1.8781400297839680E-002
  0.14737500000000003         -3.1509930373285887E-002
  0.14774999999999999         -4.3138886243478600E-002
  0.14812500000000001         -5.3542350080287252E-002
  0.14850000000000002         -6.2494961504306931E-002
  0.14887500000000004         -6.9908824463882302E-002
  0.14924999999999999         -7.5773324875710646E-002
  0.14962500000000001         -8.0311599673086570E-002
  0.15000000000000002         -8.3568790758970779E-002
  0.15037499999999998         -8.5704483018730959E-002
  0.15075000000000000         -8.7169713299386303E-002
  0.15112500000000001         -8.7826639677032775E-002
  0.15150000000000002         -8.7871832688245999E-002
  0.15187499999999998         -8.7385899440505066E-002
  0.15225000000000000         -8.6210772053136153E-002
  0.15262500000000001         -8.4180659039791494E-002
  0.15300000000000002         -8.1362691116120905E-002
  0.15337499999999998         -7.7526645529445770E-002
  0.15375000000000000         -7.2600792471734177E-002
  0.15412500000000001         -6.6744740627249499E-002
  0.15450000000000003         -5.9913429203757085E-002
  0.15487499999999998         -5.2318487621963256E-002
  0.15525000000000000         -4.4063189712893275E-002
  0.15562500000000001         -3.5315761993929981E-002
  0.15600000000000003         -2.6224263915555830E-002
  0.15637499999999999         -1.7006761935913328E-002
  0.15675000000000000         -7.8259139183428743E-003
  0.15712500000000001          1.3027072306896967E-003
  0.15750000000000003          9.9373878765482045E-003
  0.15787499999999999          1.8022369648506863E-002
  0.15825000000000000          2.5465726528082443E-002
  0.15862500000000002          3.1964704776939773E-002
  0.15900000000000003          3.7447232826715665E-002
  0.15937499999999999          4.2171955319796853E-002
  0.15975000000000000          4.5909288207496804E-002
  0.16012500000000002          4.8855033227391306E-002
  0.16050000000000003          5.1476240239905449E-002
  0.16087499999999999          5.3546300701535793E-002
  0.16125000000000000          5.5361869724338070E-002
  0.16162500000000002          5.7028726327461393E-002
  0.16200000000000003          5.8342552898375699E-002
  0.16237499999999999          5.9302437053485535E-002
  0.16275000000000001          5.9652456542028803E-002
  0.16312500000000002          5.9410499317686716E-002
  0.16350000000000003          5.8206721488952146E-002
  0.16387499999999999          5.6052826045037585E-002
  0.16425000000000001          5.3041027114779662E-002
  0.16462500000000002          4.8987732917433149E-002
  0.16500000000000004          4.4121347046554418E-002
  0.16537499999999999          3.8698774465614580E-002
  0.16575000000000001          3.2675908823588007E-002
  0.16612500000000002          2.6387194571139680E-002
  0.16650000000000004          2.0130517850512522E-002
  0.16687500000000000          1.3835055970630231E-002
  0.16725000000000001          7.8442775647390335E-003
  0.16762500000000002          2.2379306810498684E-003
  0.16799999999999998         -3.0217450192852290E-003
  0.16837500000000000         -7.8369942248659591E-003
  0.16875000000000001         -1.2312697111705436E-002
  0.16912500000000003         -1.6382432351649670E-002
  0.16949999999999998         -2.0304369713419135E-002
  0.16987500000000000         -2.3983314154543203E-002
  0.17025000000000001         -2.7390156811857795E-002
  0.17062500000000003         -3.0758850730710802E-002
  0.17099999999999999         -3.3787746520333894E-002
  0.17137500000000000         -3.6468007802224839E-002
  0.17175000000000001         -3.8865962610066362E-002
  0.17212500000000003         -4.0750145087653719E-002
  0.17249999999999999         -4.1976084465134303E-002
  0.17287500000000000         -4.2649946042576284E-002
  0.17325000000000002         -4.2618473319437203E-002
  0.17362500000000003         -4.1896618512411749E-002
  0.17399999999999999         -4.0507976873314797E-002
  0.17437500000000000         -3.8475552718551867E-002
  0.17475000000000002         -3.6041848507498780E-002
  0.17512500000000003         -3.3089812179404293E-002
  0.17549999999999999         -2.9918006379793721E-002
  0.17587500000000000         -2.6618922487344529E-002
  0.17625000000000002         -2.3172648797567183E-002
  0.17662500000000003         -1.9855008549543328E-002
  0.17699999999999999         -1.6584842256271527E-002
  0.17737500000000000         -1.3288309789861029E-002
  0.17775000000000002         -1.0174053192577002E-002
  0.17812500000000003         -7.0817443283274200E-003
  0.17849999999999999         -3.8397692585377778E-003
  0.17887500000000001         -6.9957834083308502E-004
  0.17925000000000002          2.6155960600226843E-003
  0.17962500000000003          6.0683568536003046E-003
  0.17999999999999999          9.4567741718957887E-003
  0.18037500000000001          1.2926404394286928E-002
  0.18075000000000002          1.6396958623395103E-002
  0.18112500000000004          1.9625526641642431E-002
  0.18149999999999999          2.2571122819954048E-002
  0.18187500000000001          2.5264174254870812E-002
  0.18225000000000002          2.7419440453705674E-002
  0.18262500000000004          2.9010654854762792E-002
  0.18300000000000000          3.0082209870811109E-002
  0.18337500000000001          3.0494979317632828E-002
  0.18375000000000002          3.0332529402100579E-002
  0.18412499999999998          2.9724195484879500E-002
  0.18450000000000000          2.8653983914840732E-002
  0.18487500000000001          2.7271578596077616E-002
  0.18525000000000003          2.5698735035936504E-002
  0.18562499999999998          2.4109353973425653E-002
  0.18600000000000000          2.2294941024404380E-002
  0.18637500000000001          2.0602630860421696E-002
  0.18675000000000003          1.8914378113361711E-002
  0.18712499999999999          1.7068483568904197E-002
  0.18750000000000000          1.5321082488896402E-002
  0.18787500000000001          1.3396132008437898E-002
  0.18825000000000003          1.1236482193915615E-002
  0.18862499999999999          9.0691522521345637E-003
  0.18900000000000000          6.5247163152860619E-003