  -1.4999999999999999E-002     0.0000000000000000     
  -1.4624999999999999E-002     0.0000000000000000     
  -1.4249999999999999E-002     0.0000000000000000     
  -1.3874999999999998E-002     0.0000000000000000     
  -1.3500000000000000E-002     0.0000000000000000     
  -1.3125000000000000E-002     0.0000000000000000     
  -1.2749999999999999E-002     0.0000000000000000     
  -1.2374999999999999E-002     0.0000000000000000     
  -1.2000000000000000E-002     0.0000000000000000     
  -1.1625000000000000E-002     0.0000000000000000     
  -1.1250000000000000E-002     0.0000000000000000     
  -1.0874999999999999E-002     0.0000000000000000     
  -1.0499999999999999E-002     0.0000000000000000     
  -1.0124999999999999E-002     0.0000000000000000     
  -9.7499999999999983E-003     0.0000000000000000     
  -9.3749999999999979E-003     0.0000000000000000     
  -8.9999999999999993E-003     0.0000000000000000     
  -8.6249999999999990E-003     0.0000000000000000     
  -8.2500000000000004E-003     0.0000000000000000     
  -7.8750000000000001E-003     0.0000000000000000     
  -7.4999999999999989E-003     0.0000000000000000     
  -7.1249999999999994E-003     0.0000000000000000     
  -6.7499999999999991E-003     0.0000000000000000     
  -6.3749999999999987E-003     0.0000000000000000     
  -5.9999999999999984E-003     0.0000000000000000     
  -5.6249999999999998E-003     0.0000000000000000     
  -5.2499999999999995E-003     0.0000000000000000     
  -4.8749999999999991E-003     0.0000000000000000     
  -4.4999999999999988E-003     0.0000000000000000     
  -4.1249999999999985E-003     0.0000000000000000     
  -3.7499999999999981E-003     0.0000000000000000     
  -3.3749999999999995E-003     2.0019755405916974E-037
  -2.9999999999999992E-003     5.1841885772090659E-036
  -2.6249999999999989E-003     2.0389805252192689E-035
  -2.2499999999999985E-003    -1.7905580343605495E-034
  -1.8749999999999982E-003    -1.5392875725745807E-033
  -1.4999999999999996E-003     7.8424651125526761E-033
  -1.1249999999999993E-003    -3.6048856825980865E-033
  -7.4999999999999893E-004    -1.5536618868661222E-032
  -3.7499999999999860E-004     5.2699187368886592E-032
   1.7347234759768071E-018    -1.3230231898675129E-031
   3.7500000000000207E-004     2.6526908760904326E-031
   7.5000000000000067E-004    -3.9525140527427850E-031
   1.1250000000000010E-003     3.8887052680543432E-031
   1.5000000000000013E-003    -7.4471597001984508E-032
   1.8750000000000017E-003    -5.8207089673924932E-031
   2.2500000000000020E-003     1.1616209362752895E-030
   2.6250000000000023E-003    -8.2113335989104181E-031
   3.0000000000000027E-003    -3.6724826213844293E-030
   3.3750000000000030E-003     2.1881719650265249E-029
   3.7499999999999999E-003    -1.3887277510528747E-029
   4.1250000000000002E-003    -3.2774526268444062E-028
   4.5000000000000005E-003     1.4955587906025832E-027
   4.8750000000000009E-003    -1.4179846468020149E-027
   5.2500000000000012E-003    -1.5691214601342451E-026
   5.6250000000000015E-003     1.0430043963281148E-025
   6.0000000000000019E-003    -4.4030544098913844E-025
   6.3750000000000022E-003     2.3017745869771819E-024
   6.7500000000000025E-003     1.1724216265583269E-023
   7.1250000000000029E-003     4.3026734926662291E-023
   7.5000000000000032E-003     1.6287848793613302E-022
   7.8750000000000001E-003     6.1524468670264271E-022
   8.2500000000000004E-003     2.2826922040193918E-021
   8.6250000000000007E-003     8.3229027674355561E-021
   9.0000000000000011E-003     2.9786110596371911E-020
   9.3750000000000014E-003     1.0466583912117394E-019
   9.7500000000000017E-003     3.6115881869050062E-019
   1.0125000000000002E-002     1.2233004388506877E-018
   1.0500000000000002E-002     4.0684946586990933E-018
   1.0875000000000003E-002     1.3283858256559756E-017
   1.1250000000000003E-002     4.2580142189598005E-017
   1.1625000000000003E-002     1.3399460834031585E-016
   1.2000000000000000E-002     4.1393967975041899E-016
   1.2375000000000001E-002     1.2553315225298185E-015
   1.2750000000000001E-002     3.7370788575754800E-015
   1.3125000000000001E-002     1.0920663370245335E-014
   1.3500000000000002E-002     3.1325566988822851E-014
   1.3875000000000002E-002     8.8198969902211882E-014
   1.4250000000000002E-002     2.4374254793473053E-013
   1.4625000000000003E-002     6.6112950615888083E-013
   1.5000000000000003E-002     1.7599959633469508E-012
   1.5375000000000003E-002     4.5982237119172948E-012
   1.5750000000000004E-002     1.1789752275018961E-011
   1.6125000000000000E-002     2.9664190823044677E-011
   1.6500000000000001E-002     7.3241170459773868E-011
   1.6875000000000001E-002     1.7743757990064096E-010
   1.7250000000000001E-002     4.2177783305638068E-010
   1.7625000000000002E-002     9.8365091014109337E-010
   1.8000000000000002E-002     2.2505343200684342E-009
   1.8375000000000002E-002     5.0511954512863274E-009
   1.8750000000000003E-002     1.1120471305545961E-008
   1.9125000000000003E-002     2.4013020267611088E-008
   1.9500000000000003E-002     5.0852714551989793E-008
   1.9875000000000004E-002     1.0560652256845304E-007
   2.0250000000000004E-002     2.1504215702514503E-007
   2.0625000000000004E-002     4.2930353760206507E-007
   2.1000000000000005E-002     8.4013814969515582E-007
   2.1375000000000005E-002     1.6114738247827441E-006
   2.1750000000000005E-002     3.0290810296038490E-006
   2.2125000000000006E-002     5.5786386649304165E-006
   2.2499999999999999E-002     1.0064590252809036E-005
   2.2875000000000000E-002     1.7783157512309689E-005
   2.3250000000000000E-002     3.0765094074719620E-005
   2.3625000000000000E-002     5.2096650291014292E-005
   2.4000000000000000E-002     8.6322346234735575E-005
   2.4375000000000001E-002     1.3990261658740181E-004
   2.4750000000000001E-002     2.2167641144909227E-004
   2.5125000000000001E-002     3.4322157898482861E-004
   2.5500000000000002E-002     5.1893386730092472E-004
   2.5875000000000002E-002     7.6560343402804572E-004
   2.6250000000000002E-002     1.1011436605836093E-003
   2.6625000000000003E-002     1.5421800954048418E-003
   2.7000000000000003E-002     2.1000792948491893E-003
   2.7375000000000003E-002     2.7755377095541565E-003
   2.7750000000000004E-002     3.5510483407074182E-003
   2.8125000000000004E-002     4.3832489004177197E-003
   2.8500000000000004E-002     5.1940323337202107E-003
   2.8875000000000005E-002     5.8645920031815974E-003
   2.9250000000000005E-002     6.2322221152572377E-003
   2.9625000000000005E-002     6.0945339865079240E-003
   3.0000000000000006E-002     5.2221606109135038E-003
   3.0375000000000006E-002     3.3827562807616598E-003
   3.0750000000000000E-002     3.7315077342471104E-004
   3.1125000000000000E-002    -3.9355476946609461E-003
   3.1500000000000000E-002    -9.5524319550147618E-003
   3.1875000000000001E-002    -1.6327094862538694E-002
   3.2250000000000001E-002    -2.3915159498090127E-002
   3.2625000000000001E-002    -3.1779474084106689E-002
   3.3000000000000002E-002    -3.9208442825644549E-002
   3.3375000000000002E-002    -4.5387177028327688E-002
   3.3750000000000002E-002    -4.9483425374030804E-002
   3.4125000000000003E-002    -5.0775748568108299E-002
   3.4500000000000003E-002    -4.8782154985930685E-002
   3.4875000000000003E-002    -4.3364172326897328E-002
   3.5250000000000004E-002    -3.4809057748193949E-002
   3.5625000000000004E-002    -2.3838124044590639E-002
   3.6000000000000004E-002    -1.1544961661123185E-002
   3.6375000000000005E-002     7.5096268463024202E-004
   3.6750000000000005E-002     1.1692751632470926E-002
   3.7125000000000005E-002     2.0153125344131675E-002
   3.7500000000000006E-002     2.5418782299994287E-002
   3.7875000000000006E-002     2.7408071597083264E-002
   3.8250000000000006E-002     2.6759577230784773E-002
   3.8625000000000007E-002     2.4766177870849591E-002
   3.9000000000000000E-002     2.3250919347942628E-002
   3.9375000000000000E-002     2.4250796890065734E-002
   3.9750000000000001E-002     2.9699688882429021E-002
   4.0125000000000001E-002     4.0969217186599377E-002
   4.0500000000000001E-002     5.8602490011855080E-002
   4.0875000000000002E-002     8.1969214207183116E-002
   4.1250000000000002E-002    0.10923432493970364     
   4.1625000000000002E-002    0.13741918878459947     
   4.2000000000000003E-002    0.16265978297839151     
   4.2375000000000003E-002    0.18069687041355995     
   4.2750000000000003E-002    0.18737528726238600     
   4.3125000000000004E-002    0.17931973237612425     
   4.3500000000000004E-002    0.15442711147340260     
   4.3875000000000004E-002    0.11239508573781626     
   4.4250000000000005E-002     5.4910674865584208E-002
   4.4625000000000005E-002    -1.4276448316424925E-002
   4.5000000000000005E-002    -8.9618070069752823E-002
   4.5375000000000006E-002   -0.16427480651858717     
   4.5750000000000006E-002   -0.23081062172551969     
   4.6125000000000006E-002   -0.28204980123691209     
   4.6500000000000007E-002   -0.31195817320020980     
   4.6875000000000007E-002   -0.31649493019656183     
   4.7250000000000000E-002   -0.29421494084365746     
   4.7625000000000001E-002   -0.24663513868010711     
   4.8000000000000001E-002   -0.17825406143428141     
   4.8375000000000001E-002    -9.6078745525148793E-002
   4.8750000000000002E-002    -8.9698999059956638E-003
   4.9125000000000002E-002     7.3534213587242547E-002
   4.9500000000000002E-002    0.14230915356466356     
   4.9875000000000003E-002    0.18997688828893505     
   5.0250000000000003E-002    0.21183204925569574     
   5.0625000000000003E-002    0.20657296870084324     
   5.1000000000000004E-002    0.17654196636279401     
   5.1375000000000004E-002    0.12743205543023939     
   5.1750000000000004E-002     6.7556875168464883E-002
   5.2125000000000005E-002     6.6960884538388409E-003
   5.2500000000000005E-002    -4.5128867606372761E-002
   5.2875000000000005E-002    -7.9111410665389237E-002
   5.3250000000000006E-002    -8.8724262065545817E-002
   5.3625000000000006E-002    -7.0571748150678612E-002
   5.4000000000000006E-002    -2.4879865046486552E-002
   5.4375000000000007E-002     4.4622151272340316E-002
   5.4750000000000007E-002    0.13101612821704334     
   5.5125000000000007E-002    0.22495460229772143     
   5.5500000000000008E-002    0.31550365022782939     
   5.5875000000000008E-002    0.39115194773869538     
   5.6250000000000008E-002    0.44079493253845931     
   5.6625000000000009E-002    0.45458940003855830     
   5.7000000000000009E-002    0.42482437066041057     
   5.7375000000000009E-002    0.34670842501461169     
   5.7750000000000010E-002    0.21900336030577139     
   5.8125000000000010E-002     4.4606940933555703E-002
   5.8500000000000010E-002   -0.16912261539808277     
   5.8875000000000011E-002   -0.41027237312308207     
   5.9250000000000011E-002   -0.66270328781259824     
   5.9624999999999997E-002   -0.90689778897977558     
   5.9999999999999998E-002    -1.1213102743460834     
   6.0374999999999998E-002    -1.2842341173635796     
   6.0749999999999998E-002    -1.3760326022102600     
   6.1124999999999999E-002    -1.3813962728016960     
   6.1499999999999999E-002    -1.2915362027795911     
   6.1874999999999999E-002    -1.1056680575282791     
   6.2250000000000000E-002   -0.83188908653768190     
   6.2625000000000000E-002   -0.48690628714047712     
   6.3000000000000000E-002    -9.4624654278548159E-002
   6.3375000000000001E-002    0.31585652961987881     
   6.3750000000000001E-002    0.71329213405548431     
   6.4125000000000001E-002     1.0673948667110302     
   6.4500000000000002E-002     1.3520342694711429     
   6.4875000000000002E-002     1.5476068898158519     
   6.5250000000000002E-002     1.6429502648507379     
   6.5625000000000003E-002     1.6361198247797097     
   6.6000000000000003E-002     1.5339033457138571     
   6.6375000000000003E-002     1.3507810702109690     
   6.6750000000000004E-002     1.1069551429840578     
   6.7125000000000004E-002    0.82588118495172180     
   6.7500000000000004E-002    0.53163819558888270     
   6.7875000000000005E-002    0.24697932463753308     
   6.8250000000000005E-002    -9.2361797332048412E-003
   6.8625000000000005E-002   -0.22288396640229408     
   6.9000000000000006E-002   -0.38558255710345374     
   6.9375000000000006E-002   -0.49461983800799281     
   6.9750000000000006E-002   -0.55225768040557721     
   7.0125000000000007E-002   -0.56477184824771465     
   7.0500000000000007E-002   -0.54101170200759885     
   7.0875000000000007E-002   -0.49105795698827626     
   7.1250000000000008E-002   -0.42483357094686836     
   7.1625000000000008E-002   -0.35111444748641540     
   7.2000000000000008E-002   -0.27694882677332300     
   7.2375000000000009E-002   -0.20761505057487500     
   7.2750000000000009E-002   -0.14643779610165175     
   7.3125000000000009E-002    -9.5504937252427702E-002
   7.3500000000000010E-002    -5.6017902001142844E-002
   7.3875000000000010E-002    -2.8623957806656906E-002
   7.4250000000000010E-002    -1.3880551191910347E-002
   7.4625000000000011E-002    -1.1817775894893936E-002
   7.5000000000000011E-002    -2.2309160093687112E-002
   7.5375000000000011E-002    -4.4269654726146038E-002
   7.5750000000000012E-002    -7.5734791055268480E-002
   7.6124999999999998E-002   -0.11361562933885178     
   7.6499999999999999E-002   -0.15360544205756310     
   7.6874999999999999E-002   -0.19124138186661283     
   7.7249999999999999E-002   -0.22203777100702349     
   7.7625000000000000E-002   -0.24254941323571461     
   7.8000000000000000E-002   -0.25173226737276855     
   7.8375000000000000E-002   -0.25084738874147217     
   7.8750000000000001E-002   -0.24446549637033010     
   7.9125000000000001E-002   -0.23968362338155358     
   7.9500000000000001E-002   -0.24489907469381700     
   7.9875000000000002E-002   -0.26850025191609550     
   8.0250000000000002E-002   -0.31631842379522290     
   8.0625000000000002E-002   -0.38924989560255052     
   8.1000000000000003E-002   -0.48166175162380886     
   8.1375000000000003E-002   -0.58011774960861562     
   8.1750000000000003E-002   -0.66405377675091826     
   8.2125000000000004E-002   -0.70770413639290697     
   8.2500000000000004E-002   -0.68383986219869031     
   8.2875000000000004E-002   -0.56853767402195365     
   8.3250000000000005E-002   -0.34673486196095510     
   8.3625000000000005E-002    -1.6852363669660086E-002
   8.4000000000000005E-002    0.40603383402551652     
   8.4375000000000006E-002    0.88927859693070155     
   8.4750000000000006E-002     1.3848361938188412     
   8.5125000000000006E-002     1.8344870144659051     
   8.5500000000000007E-002     2.1772335199181314     
   8.5875000000000007E-002     2.3580027469264238     
   8.6250000000000007E-002     2.3362648680595504     
   8.6625000000000008E-002     2.0929381759328978     
   8.7000000000000008E-002     1.6344839284578088     
   8.7375000000000008E-002    0.99352850659722369     
   8.7750000000000009E-002    0.22561907326333974     
   8.8125000000000009E-002   -0.59750832810023446     
   8.8500000000000009E-002    -1.3961271280673737     
   8.8875000000000010E-002    -2.0923874478112929     
   8.9250000000000010E-002    -2.6194500849725006     
   8.9625000000000010E-002    -2.9284301333903260     
   9.0000000000000011E-002    -2.9931856866887787     
   9.0375000000000011E-002    -2.8120064775138611     
   9.0750000000000011E-002    -2.4059835965291434     
   9.1125000000000012E-002    -1.8154940192497513     
   9.1500000000000012E-002    -1.0947420008913857     
   9.1875000000000012E-002   -0.30474032290771980     
   9.2250000000000013E-002    0.49190872500950356     
   9.2624999999999999E-002     1.2375767799621764     
   9.2999999999999999E-002     1.8833145236726336     
   9.3375000000000000E-002     2.3920264348934692     
   9.3750000000000000E-002     2.7402174068251206     
   9.4125000000000000E-002     2.9171781180937635     
   9.4500000000000001E-002     2.9245773620028634     
   9.4875000000000001E-002     2.7745209201696399     
   9.5250000000000001E-002     2.4871146857797735     
   9.5625000000000002E-002     2.0877917305471718     
   9.6000000000000002E-002     1.6055054006278229     
   9.6375000000000002E-002     1.0697579338385714     
   9.6750000000000003E-002    0.50986217681592305     
   9.7125000000000003E-002    -4.7317038093232094E-002
   9.7500000000000003E-002   -0.57808102488385193     
   9.7875000000000004E-002    -1.0624665212893074     
   9.8250000000000004E-002    -1.4844135852483085     
   9.8625000000000004E-002    -1.8324339691471367     
   9.9000000000000005E-002    -2.0990696291138402     
   9.9375000000000005E-002    -2.2805567777852005     
   9.9750000000000005E-002    -2.3769838576880669     
  0.10012500000000001         -2.3910654485290630     
  0.10050000000000001         -2.3283660798253409     
  0.10087500000000001         -2.1965184660030168     
  0.10125000000000001         -2.0046501655333824     
  0.10162500000000001         -1.7627841414384915     
  0.10200000000000001         -1.4819441537630524     
  0.10237500000000001         -1.1732807354183814     
  0.10275000000000001        -0.84752689252109636     
  0.10312500000000001        -0.51535391319518487     
  0.10350000000000001        -0.18632579172509112     
  0.10387500000000001         0.13081766585635363     
  0.10425000000000001         0.42832713345848927     
  0.10462500000000001         0.69998489414536202     
  0.10500000000000001         0.94065033874962145     
  0.10537500000000001          1.1463856844372204     
  0.10575000000000001          1.3147902082583462     
  0.10612500000000001          1.4440362203787136     
  0.10650000000000001          1.5341306324896880     
  0.10687500000000001          1.5854797598590125     
  0.10725000000000001          1.5994975131446278     
  0.10762500000000001          1.5785141914010765     
  0.10800000000000001          1.5252571827470942     
  0.10837500000000001          1.4428536621856396     
  0.10875000000000001          1.3350587201731432     
  0.10912500000000000          1.2054660925768390     
  0.10950000000000000          1.0581846107297839     
  0.10987500000000000         0.89705141587557868     
  0.11025000000000000         0.72606838249898087     
  0.11062500000000001         0.54919543210070987     
  0.11100000000000000         0.37018497172464593     
  0.11137500000000002         0.19246004888688595     
  0.11175000000000000          1.9477200757449506E-002
  0.11212500000000002        -0.14578728902882718     
  0.11250000000000000        -0.30076691317140830     
  0.11287500000000002        -0.44304539012601890     
  0.11325000000000000        -0.57074451245460722     
  0.11362500000000002        -0.68238699645177991     
  0.11400000000000000        -0.77673118352319503     
  0.11437500000000002        -0.85298123477727872     
  0.11475000000000000        -0.91085227059629514     
  0.11512500000000002        -0.95035724142109546     
  0.11550000000000001        -0.97148460014967464     
  0.11587500000000002        -0.97523627734709262     
  0.11625000000000001        -0.96226632664655165     
  0.11662500000000002        -0.93369945652910902     
  0.11700000000000001        -0.89080277509382932     
  0.11737499999999999        -0.83494325830333449     
  0.11775000000000001        -0.76775213072181026     
  0.11812499999999999        -0.69062211850632460     
  0.11850000000000001        -0.60543274522933288     
  0.11887499999999999        -0.51379644550198222     
  0.11925000000000001        -0.41733650025678926     
  0.11962500000000000        -0.31813883070648974     
  0.12000000000000001        -0.21757128763930422     
  0.12037500000000000        -0.11746054973826653     
  0.12075000000000001         -1.9396230548848273E-002
  0.12112500000000000          7.5084042392403766E-002
  0.12150000000000001         0.16453288755184348     
  0.12187500000000000         0.24772821415639801     
  0.12225000000000001         0.32338189721767729     
  0.12262500000000000         0.39067170662009609     
  0.12300000000000001         0.44864852315283854     
  0.12337500000000000         0.49680526088306076     
  0.12375000000000001         0.53487630714922640     
  0.12412500000000000         0.56279465727125555     
  0.12450000000000001         0.58043251065619184     
  0.12487500000000000         0.58825450842245663     
  0.12525000000000003         0.58675013399646891     
  0.12562499999999999         0.57633695735534196     
  0.12600000000000000         0.55770843996230790     
  0.12637500000000002         0.53171144257973579     
  0.12675000000000003         0.49890785529344173     
  0.12712499999999999         0.46027178901194832     
  0.12750000000000000         0.41681667998691480     
  0.12787500000000002         0.36886988229770307     
  0.12825000000000003         0.31775841552006556     
  0.12862499999999999         0.26420416157908866     
  0.12900000000000000         0.20876955744255923     
  0.12937500000000002         0.15263779142608408     
  0.12975000000000003          9.6381827371977716E-002
  0.13012499999999999          4.0786703635457458E-002
  0.13050000000000000         -1.3075797054911305E-002
  0.13087500000000002         -6.4763670090485392E-002
  0.13125000000000003        -0.11350624963633721     
  0.13162499999999999        -0.15848730694938695     
  0.13200000000000001        -0.19941882976070746     
  0.13237500000000002        -0.23570614480033614     
  0.13275000000000003        -0.26706228062399889     
  0.13312499999999999        -0.29344984298656684     
  0.13350000000000001        -0.31438590506390263     
  0.13387500000000002        -0.33017482983166008     
  0.13424999999999998        -0.34082422837216542     
  0.13462499999999999        -0.34632194271346500     
  0.13500000000000001        -0.34708749153972729     
  0.13537500000000002        -0.34322796866265542     
  0.13574999999999998        -0.33499946150452886     
  0.13612500000000000        -0.32282793074255650     
  0.13650000000000001        -0.30702019510275336     
  0.13687500000000002        -0.28767286756562249     
  0.13724999999999998        -0.26517919831441111     
  0.13762500000000000        -0.24003506315125134     
  0.13800000000000001        -0.21226119867904028     
  0.13837500000000003        -0.18247561735867890     
  0.13874999999999998        -0.15097985832766042     
  0.13912500000000000        -0.11821729373613271     
  0.13950000000000001         -8.4807820872553424E-002
  0.13987500000000003         -5.1145801632753715E-002
  0.14024999999999999         -1.7838456140823588E-002
  0.14062500000000000          1.4708420777841982E-002
  0.14100000000000001          4.5971925586412485E-002
  0.14137500000000003          7.5258449710798828E-002
  0.14174999999999999         0.10266128249544146     
  0.14212500000000000         0.12733389347450680     
  0.14250000000000002         0.14929713283712429     
  0.14287500000000003         0.16838372751633257     
  0.14324999999999999         0.18416166080620308     
  0.14362500000000000         0.19700217391684041     
  0.14400000000000002         0.20680626384108336     
  0.14437500000000003         0.21335664362706863     
  0.14474999999999999         0.21718644768346784     
  0.14512500000000000         0.21810275904773224     
  0.14550000000000002         0.21623620916022984     
  0.14587500000000003         0.21186019812413340     
  0.14624999999999999         0.20489524511748428     
  0.14662500000000001         0.19544830965516224     
  0.14700000000000002         0.18400042067661515     
  0.14737500000000003         0.17035970838445780     
  0.14774999999999999         0.15477877848553451     
  0.14812500000000001         0.13766862099874821     
  0.14850000000000002         0.11914274436121516     
  0.14887500000000004          9.9465588768883090E-002
  0.14924999999999999          7.9044421912464316E-002
  0.14962500000000001          5.8083356417978599E-002
  0.15000000000000002          3.7041934512549585E-002
  0.15037499999999998          1.6285919575383986E-002
  0.15075000000000000         -3.8320870065803574E-003
  0.15112500000000001         -2.3186321457104597E-002
  0.15150000000000002         -4.1303767577409063E-002
  0.15187499999999998         -5.8035677203557082E-002
  0.15225000000000000         -7.3352027617704693E-002
  0.15262500000000001         -8.7075303865639248E-002
  0.15300000000000002         -9.9197300933456051E-002
  0.15337499999999998        -0.10973099632756102     
  0.15375000000000000        -0.11854192747574688     
  0.15412500000000001        -0.12580643984030682     
  0.15450000000000003        -0.13153903009077983     
  0.15487499999999998        -0.13555507988379434     
  0.15525000000000000        -0.13809843608758654     
  0.15562500000000001        -0.13903429503083040     
  0.15600000000000003        -0.13825350210176951     
  0.15637499999999999        -0.13600031237878935     
  0.15675000000000000        -0.13186537341039484     
  0.15712500000000001        -0.12603849343853743     
  0.15750000000000003        -0.11868851342925918     
  0.15787499999999999        -0.10955929483898807     
  0.15825000000000000         -9.9110226510182170E-002
  0.15862500000000002         -8.7591017952528202E-002
  0.15900000000000003         -7.4999452682315379E-002
  0.15937499999999999         -6.2090519886776441E-002
  0.15975000000000000         -4.8718825131235079E-002
  0.16012500000000002         -3.5432825746282495E-002
  0.16050000000000003         -2.2312604074064539E-002
  0.16087499999999999         -9.5169297657144922E-003
  0.16125000000000000          2.8768233684982793E-003
  0.16162500000000002          1.4724093111837248E-002
  0.16200000000000003          2.6017279285160001E-002
  0.16237499999999999          3.6653237122374505E-002
  0.16275000000000001          4.6616993444834817E-002
  0.16312500000000002          5.5606946891279069E-002
  0.16350000000000003          6.3821832000279466E-002
  0.16387499999999999          7.1047056072717316E-002
  0.16425000000000001          7.7274544684890478E-002
  0.16462500000000002          8.2512127921292866E-002
  0.16500000000000004          8.6692424603939930E-002
  0.16537499999999999          9.0025679319209975E-002
  0.16575000000000001          9.2250250975666997E-002
  0.16612500000000002          9.3465272476964914E-002
  0.16650000000000004          9.3502176546957722E-002
  0.16687500000000000          9.2260571546030706E-002
  0.16725000000000001          8.9800753261366079E-002
  0.16762500000000002          8.5847307239580450E-002
  0.16799999999999998          8.0528360612766359E-002
  0.16837500000000000          7.4030049541061418E-002
  0.16875000000000001          6.6414460451621110E-002
  0.16912500000000003          5.8117147218564841E-002
  0.16949999999999998          4.9367697856505924E-002
  0.16987500000000000          4.0353294372425325E-002
  0.17025000000000001          3.1626181097925685E-002
  0.17062500000000003          2.3100610871706742E-002
  0.17099999999999999          1.5009007048520213E-002
  0.17137500000000000          7.2513702245474293E-003
  0.17175000000000001         -1.1397063289812076E-004
  0.17212500000000003         -7.1035738889693445E-003
  0.17249999999999999         -1.3870460924089157E-002
  0.17287500000000000         -2.0491078293069620E-002
  0.17325000000000002         -2.6770582616340952E-002
  0.17362500000000003         -3.2899419111516316E-002
  0.17399999999999999         -3.8722916500587685E-002
  0.17437500000000000         -4.4149354382503406E-002
  0.17475000000000002         -4.9297977652896986E-002
  0.17512500000000003         -5.3827397423716089E-002
  0.17549999999999999         -5.7671894402252427E-002
  0.17587500000000000         -6.0840432817655415E-002
  0.17625000000000002         -6.3146267311154552E-002
  0.17662500000000003         -6.4421703661188684E-002
  0.17699999999999999         -6.4656318523551359E-002
  0.17737500000000000         -6.3835978145442479E-002
  0.17775000000000002         -6.2023580437398390E-002
  0.17812500000000003         -5.9330194029427880E-002
  0.17849999999999999         -5.5705465143666505E-002
  0.17887500000000001         -5.1418490687871056E-002
  0.17925000000000002         -4.6666136036996653E-002
  0.17962500000000003         -4.1468539621077098E-002
  0.17999999999999999         -3.5993059532733532E-002
  0.18037500000000001         -3.0394217528779049E-002
  0.18075000000000002         -2.4690080198459294E-002
  0.18112500000000004         -1.9200359296886061E-002
  0.18149999999999999         -1.3709145065794015E-002
  0.18187500000000001         -8.3867025270840286E-003
  0.18225000000000002         -3.2748442058959347E-003
  0.18262500000000004          1.8318213288381182E-003
  0.18300000000000000          6.6194382130891939E-003
  0.18337500000000001          1.1444508587590019E-002
  0.18375000000000002          1.6310795673603787E-002
  0.18412499999999998          2.0802100841119012E-002
  0.18450000000000000          2.5286272883917594E-002
  0.18487500000000001          2.9518371541148947E-002
  0.18525000000000003          3.3221852218233365E-002
  0.18562499999999998          3.6692624976276240E-002
  0.18600000000000000          3.9427955827678648E-002
  0.18637500000000001          4.1567458520549806E-002
  0.18675000000000003          4.3079635565307618E-002
  0.18712499999999999          4.3874574171120277E-002
  0.18750000000000000          4.3934336307375990E-002
  0.18787500000000001          4.3299769426053167E-002
  0.18825000000000003          4.2065320395070084E-002
  0.18862499999999999          4.0308822180537593E-002
  0.18900000000000000          3.8078825283265574E-002