  -1.4999999999999999E-002     0.0000000000000000     
  -1.4624999999999999E-002     0.0000000000000000     
  -1.4249999999999999E-002     0.0000000000000000     
  -1.3874999999999998E-002     0.0000000000000000     
  -1.3500000000000000E-002     0.0000000000000000     
  -1.3125000000000000E-002     0.0000000000000000     
  -1.2749999999999999E-002     0.0000000000000000     
  -1.2374999999999999E-002     0.0000000000000000     
  -1.2000000000000000E-002     0.0000000000000000     
  -1.1625000000000000E-002     0.0000000000000000     
  -1.1250000000000000E-002     0.0000000000000000     
  -1.0874999999999999E-002     0.0000000000000000     
  -1.0499999999999999E-002     0.0000000000000000     
  -1.0124999999999999E-002     0.0000000000000000     
  -9.7499999999999983E-003     0.0000000000000000     
  -9.3749999999999979E-003     0.0000000000000000     
  -8.9999999999999993E-003     0.0000000000000000     
  -8.6249999999999990E-003     0.0000000000000000     
  -8.2500000000000004E-003     0.0000000000000000     
  -7.8750000000000001E-003     0.0000000000000000     
  -7.4999999999999989E-003     0.0000000000000000     
  -7.1249999999999994E-003     0.0000000000000000     
  -6.7499999999999991E-003     0.0000000000000000     
  -6.3749999999999987E-003     0.0000000000000000     
  -5.9999999999999984E-003     0.0000000000000000     
  -5.6249999999999998E-003     0.0000000000000000     
  -5.2499999999999995E-003     0.0000000000000000     
  -4.8749999999999991E-003     0.0000000000000000     
  -4.4999999999999988E-003     0.0000000000000000     
  -4.1249999999999985E-003     0.0000000000000000     
  -3.7499999999999981E-003     0.0000000000000000     
  -3.3749999999999995E-003     0.0000000000000000     
  -2.9999999999999992E-003     0.0000000000000000     
  -2.6249999999999989E-003     0.0000000000000000     
  -2.2499999999999985E-003     0.0000000000000000     
  -1.8749999999999982E-003     0.0000000000000000     
  -1.4999999999999996E-003    -8.2810142264990187E-039
  -1.1249999999999993E-003     1.6572030037034002E-035
  -7.4999999999999893E-004    -9.3936740800523783E-035
  -3.7499999999999860E-004     1.5468456198683126E-034
   1.7347234759768071E-018     8.8342201879407052E-034
   3.7500000000000207E-004    -1.3207894253841698E-034
   7.5000000000000067E-004    -3.6729819731188981E-033
   1.1250000000000010E-003     5.3622277991446733E-033
   1.5000000000000013E-003    -3.9792604380483298E-034
   1.8750000000000017E-003    -1.9251220203691212E-032
   2.2500000000000020E-003     6.2813613822341017E-032
   2.6250000000000023E-003    -1.2592833521529634E-031
   3.0000000000000027E-003     2.6399867031122963E-031
   3.3750000000000030E-003    -2.0960355914448672E-031
   3.7499999999999999E-003    -2.8186952116701631E-030
   4.1250000000000002E-003     6.5866850405935634E-031
   4.5000000000000005E-003     9.1712236620737413E-029
   4.8750000000000009E-003    -3.6506537957443385E-028
   5.2500000000000012E-003    -2.5557159647425015E-028
   5.6250000000000015E-003     8.2658532997594167E-027
   6.0000000000000019E-003    -4.6867262958188113E-026
   6.3750000000000022E-003     1.7879220285055006E-025
   6.7500000000000025E-003    -6.1313675970537379E-025
   7.1250000000000029E-003     4.2196637499552162E-024
   7.5000000000000032E-003     1.4109613749339647E-023
   7.8750000000000001E-003     5.6297104474387695E-023
   8.2500000000000004E-003     2.0934592638948308E-022
   8.6250000000000007E-003     7.9135466987666911E-022
   9.0000000000000011E-003     2.9208507577786303E-021
   9.3750000000000014E-003     1.0598662819490522E-020
   9.7500000000000017E-003     3.7755437999622815E-020
   1.0125000000000002E-002     1.3205586883876560E-019
   1.0500000000000002E-002     4.5348773819300939E-019
   1.0875000000000003E-002     1.5289629620967841E-018
   1.1250000000000003E-002     5.0610862617459356E-018
   1.1625000000000003E-002     1.6447360379483605E-017
   1.2000000000000000E-002     5.2474352154492517E-017
   1.2375000000000001E-002     1.6435633409712941E-016
   1.2750000000000001E-002     5.0536275092643143E-016
   1.3125000000000001E-002     1.5254130619003982E-015
   1.3500000000000002E-002     4.5198950582449778E-015
   1.3875000000000002E-002     1.3146572577752311E-014
   1.4250000000000002E-002     3.7534312873163982E-014
   1.4625000000000003E-002     1.0518725375727705E-013
   1.5000000000000003E-002     2.8933507854668222E-013
   1.5375000000000003E-002     7.8113882930103977E-013
   1.5750000000000004E-002     2.0697925798865413E-012
   1.6125000000000000E-002     5.3824569510438970E-012
   1.6500000000000001E-002     1.3736337331909207E-011
   1.6875000000000001E-002     3.4401457103524129E-011
   1.7250000000000001E-002     8.4543468867649750E-011
   1.7625000000000002E-002     2.0387047806026297E-010
   1.8000000000000002E-002     4.8236713292967872E-010
   1.8375000000000002E-002     1.1197542044970568E-009
   1.8750000000000003E-002     2.5501145913256661E-009
   1.9125000000000003E-002     5.6972140903807705E-009
   1.9500000000000003E-002     1.2485100149056124E-008
   1.9875000000000004E-002     2.6835824213162577E-008
   2.0250000000000004E-002     5.6571003438943070E-008
   2.0625000000000004E-002     1.1694505847845807E-007
   2.1000000000000005E-002     2.3704734889352202E-007
   2.1375000000000005E-002     4.7108507813604313E-007
   2.1750000000000005E-002     9.1774258753781502E-007
   2.2125000000000006E-002     1.7523988981992352E-006
   2.2499999999999999E-002     3.2792185093251853E-006
   2.2875000000000000E-002     6.0124605768205172E-006
   2.3250000000000000E-002     1.0799266533926489E-005
   2.3625000000000000E-002     1.8997510055116786E-005
   2.4000000000000000E-002     3.2722725307435636E-005
   2.4375000000000001E-002     5.5173747085557191E-005
   2.4750000000000001E-002     9.1032098508521400E-005
   2.5125000000000001E-002     1.4691675218704269E-004
   2.5500000000000002E-002     2.3183593670859405E-004
   2.5875000000000002E-002     3.5750794095248115E-004
   2.6250000000000002E-002     5.3842569550505571E-004
   2.6625000000000003E-002     7.9136703357280671E-004
   2.7000000000000003E-002     1.1341303345476829E-003
   2.7375000000000003E-002     1.5830502894788356E-003
   2.7750000000000004E-002     2.1491493217302726E-003
   2.8125000000000004E-002     2.8328623597455973E-003
   2.8500000000000004E-002     3.6168305467797228E-003
   2.8875000000000005E-002     4.4585717453769613E-003
   2.9250000000000005E-002     5.2826770381114978E-003
   2.9625000000000005E-002     5.9753569310922027E-003
   3.0000000000000006E-002     6.3814589044993847E-003
   3.0375000000000006E-002     6.3115231866985224E-003
   3.0750000000000000E-002     5.5513847607813402E-003
   3.1125000000000000E-002     3.8879315859071785E-003
   3.1500000000000000E-002     1.1383447477335672E-003
   3.1875000000000001E-002    -2.8071111058422795E-003
   3.2250000000000001E-002    -7.9482821211280322E-003
   3.2625000000000001E-002    -1.4133586266553692E-002
   3.3000000000000002E-002    -2.1041554459991348E-002
   3.3375000000000002E-002    -2.8178776409279578E-002
   3.3750000000000002E-002    -3.4907776087780416E-002
   3.4125000000000003E-002    -4.0512716359378739E-002
   3.4500000000000003E-002    -4.4286379772629010E-002
   3.4875000000000003E-002    -4.5640119554163909E-002
   3.5250000000000004E-002    -4.4222645321523195E-002
   3.5625000000000004E-002    -4.0001977948067313E-002
   3.6000000000000004E-002    -3.3336064562356174E-002
   3.6375000000000005E-002    -2.4945914171497812E-002
   3.6750000000000005E-002    -1.5867408994684938E-002
   3.7125000000000005E-002    -7.2722059647967255E-003
   3.7500000000000006E-002    -3.2124921575619667E-004
   3.7875000000000006E-002     4.1123535160387508E-003
   3.8250000000000006E-002     5.5991354145081811E-003
   3.8625000000000007E-002     4.3354488346753076E-003
   3.9000000000000000E-002     1.2051830689669596E-003
   3.9375000000000000E-002    -2.2990989621162260E-003
   3.9750000000000001E-002    -4.1890079526418107E-003
   4.0125000000000001E-002    -2.3387817901296352E-003
   4.0500000000000001E-002     5.2352936643413773E-003
   4.0875000000000002E-002     1.9969405460870546E-002
   4.1250000000000002E-002     4.2407710557686412E-002
   4.1625000000000002E-002     7.1979613117967800E-002
   4.2000000000000003E-002    0.10687601325526383     
   4.2375000000000003E-002    0.14413462851036721     
   4.2750000000000003E-002    0.17983427106731131     
   4.3125000000000004E-002    0.20957646399953186     
   4.3500000000000004E-002    0.22887930298279774     
   4.3875000000000004E-002    0.23386401781213229     
   4.4250000000000005E-002    0.22171601803118773     
   4.4625000000000005E-002    0.19119174223782617     
   4.5000000000000005E-002    0.14292999866362924     
   4.5375000000000006E-002     7.9523146485448878E-002
   4.5750000000000006E-002     5.4446840848763663E-003
   4.6125000000000006E-002    -7.3360842179911623E-002
   4.6500000000000007E-002   -0.15002527435801982     
   4.6875000000000007E-002   -0.21747239158459375     
   4.7250000000000000E-002   -0.26922559745246250     
   4.7625000000000001E-002   -0.30022782432288092     
   4.8000000000000001E-002   -0.30742158532797570     
   4.8375000000000001E-002   -0.29029287425441375     
   4.8750000000000002E-002   -0.25101949615426866     
   4.9125000000000002E-002   -0.19420402174818935     
   4.9500000000000002E-002   -0.12659756485380380     
   4.9875000000000003E-002    -5.6100177195916076E-002
   5.0250000000000003E-002     9.0783480116372415E-003
   5.0625000000000003E-002     6.1443378724149511E-002
   5.1000000000000004E-002     9.5296812034155923E-002
   5.1375000000000004E-002    0.10731507947351840     
   5.1750000000000004E-002     9.7138953021082636E-002
   5.2125000000000005E-002     6.7306315159534086E-002
   5.2500000000000005E-002     2.2919777541938829E-002
   5.2875000000000005E-002    -2.8983753852729888E-002
   5.3250000000000006E-002    -8.0435936311935852E-002
   5.3625000000000006E-002   -0.12352028945415669     
   5.4000000000000006E-002   -0.15126693280979786     
   5.4375000000000007E-002   -0.15852796326242030     
   5.4750000000000007E-002   -0.14239753381720932     
   5.5125000000000007E-002   -0.10242121937037919     
   5.5500000000000008E-002    -4.0529410170899761E-002
   5.5875000000000008E-002     3.9368451440201714E-002
   5.6250000000000008E-002    0.13174021401637515     
   5.6625000000000009E-002    0.23008321485131705     
   5.7000000000000009E-002    0.32724454168524297     
   5.7375000000000009E-002    0.41594770704906631     
   5.7750000000000010E-002    0.48900190495619533     
   5.8125000000000010E-002    0.53952541465789083     
   5.8500000000000010E-002    0.56122959595074973     
   5.8875000000000011E-002    0.54864314275943316     
   5.9250000000000011E-002    0.49749367761910734     
   5.9624999999999997E-002    0.40521805315042669     
   5.9999999999999998E-002    0.27159873065373924     
   6.0374999999999998E-002     9.9273885137598855E-002
   6.0749999999999998E-002   -0.10563026800417930     
   6.1124999999999999E-002   -0.33338136678121782     
   6.1499999999999999E-002   -0.57066321295816569     
   6.1874999999999999E-002   -0.80127825999027014     
   6.2250000000000000E-002    -1.0072121333617727     
   6.2625000000000000E-002    -1.1701026100076495     
   6.3000000000000000E-002    -1.2732945119851038     
   6.3375000000000001E-002    -1.3033665899460134     
   6.3750000000000001E-002    -1.2521988648384952     
   6.4125000000000001E-002    -1.1179825309569213     
   6.4500000000000002E-002   -0.90585650551407504     
   6.4875000000000002E-002   -0.62797967559295997     
   6.5250000000000002E-002   -0.30230267853058834     
   6.5625000000000003E-002     4.8738714644484940E-002
   6.6000000000000003E-002    0.40027323877247140     
   6.6375000000000003E-002    0.72749316151064236     
   6.6750000000000004E-002     1.0076954771268527     
   6.7125000000000004E-002     1.2223218261132911     
   6.7500000000000004E-002     1.3587091810657210     
   6.7875000000000005E-002     1.4108443372844366     
   6.8250000000000005E-002     1.3796086696556453     
   6.8625000000000005E-002     1.2728924270884716     
   6.9000000000000006E-002     1.1039787924524360     
   6.9375000000000006E-002    0.89066175945242954     
   6.9750000000000006E-002    0.65302896793597853     
   7.0125000000000007E-002    0.41168308424581818     
   7.0500000000000007E-002    0.18564236710353571     
   7.0875000000000007E-002    -9.6726712156252753E-003
   7.1250000000000008E-002   -0.16338442624028590     
   7.1625000000000008E-002   -0.27030782138782800     
   7.2000000000000008E-002   -0.33113204979256494     
   7.2375000000000009E-002   -0.35121970012837089     
   7.2750000000000009E-002   -0.33997200848467407     
   7.3125000000000009E-002   -0.30887112287733798     
   7.3500000000000010E-002   -0.26923652617581523     
   7.3875000000000010E-002   -0.23116278248635885     
   7.4250000000000010E-002   -0.20157463325389835     
   7.4625000000000011E-002   -0.18377989584475582     
   7.5000000000000011E-002   -0.17775262535086381     
   7.5375000000000011E-002   -0.18038556924861529     
   7.5750000000000012E-002   -0.18712870329239412     
   7.6124999999999998E-002   -0.19335045655302671     
   7.6499999999999999E-002   -0.19533544199815006     
   7.6874999999999999E-002   -0.19159487881330395     
   7.7249999999999999E-002   -0.18301039702060545     
   7.7625000000000000E-002   -0.17252291832817257     
   7.8000000000000000E-002   -0.16440582607968265     
   7.8375000000000000E-002   -0.16315540614014049     
   7.8750000000000001E-002   -0.17224803775496395     
   7.9125000000000001E-002   -0.19339053899731304     
   7.9500000000000001E-002   -0.22564051412180025     
   7.9875000000000002E-002   -0.26582235540608118     
   8.0250000000000002E-002   -0.30857209988557183     
   8.0625000000000002E-002   -0.34729908658915631     
   8.1000000000000003E-002   -0.37535036443967057     
   8.1375000000000003E-002   -0.38648174108079270     
   8.1750000000000003E-002   -0.37624196413076444     
   8.2125000000000004E-002   -0.34212882021134705     
   8.2500000000000004E-002   -0.28396956965094322     
   8.2875000000000004E-002   -0.20415853327016931     
   8.3250000000000005E-002   -0.10712596313934383     
   8.3625000000000005E-002     2.3734054600618726E-004
   8.4000000000000005E-002    0.10940235592388706     
   8.4375000000000006E-002    0.21023550930883458     
   8.4750000000000006E-002    0.29175756540968112     
   8.5125000000000006E-002    0.34309602316385729     
   8.5500000000000007E-002    0.35480073353981512     
   8.5875000000000007E-002    0.32062310523583770     
   8.6250000000000007E-002    0.23943096658230378     
   8.6625000000000008E-002    0.11684844772987135     
   8.7000000000000008E-002    -3.3625929444660779E-002
   8.7375000000000008E-002   -0.19071081178533000     
   8.7750000000000009E-002   -0.32696107162240495     
   8.8125000000000009E-002   -0.41197569002525442     
   8.8500000000000009E-002   -0.41697314686466214     
   8.8875000000000010E-002   -0.32033100274082432     
   8.9250000000000010E-002   -0.11270062157755492     
   8.9625000000000010E-002    0.19904237238133335     
   9.0000000000000011E-002    0.58947477467503773     
   9.0375000000000011E-002     1.0165118191529514     
   9.0750000000000011E-002     1.4252217880923723     
   9.1125000000000012E-002     1.7547221349807174     
   9.1500000000000012E-002     1.9477668790211786     
   9.1875000000000012E-002     1.9587503368956232     
   9.2250000000000013E-002     1.7625242803634698     
   9.2624999999999999E-002     1.3593452381632809     
   9.2999999999999999E-002    0.77604649377636492     
   9.3375000000000000E-002     6.4203673486471269E-002
   9.3750000000000000E-002   -0.70636966195803641     
   9.4125000000000000E-002    -1.4563847898418474     
   9.4500000000000001E-002    -2.1071560711434025     
   9.4875000000000001E-002    -2.5900602637485495     
   9.5250000000000001E-002    -2.8552984050125967     
   9.5625000000000002E-002    -2.8764588502825701     
   9.6000000000000002E-002    -2.6529709139878324     
   9.6375000000000002E-002    -2.2086095063879490     
   9.6750000000000003E-002    -1.5874674685327066     
   9.7125000000000003E-002   -0.84784957387984838     
   9.7500000000000003E-002    -5.5082749382538432E-002
   9.7875000000000004E-002    0.72495131671804547     
   9.8250000000000004E-002     1.4326785254657066     
   9.8625000000000004E-002     2.0189071294909597     
   9.9000000000000005E-002     2.4485108245694271     
   9.9375000000000005E-002     2.7010318417814791     
   9.9750000000000005E-002     2.7710949095842619     
  0.10012500000000001          2.6665461793149698     
  0.10050000000000001          2.4059393968572564     
  0.10087500000000001          2.0163094357886600     
  0.10125000000000001          1.5293621146418037     
  0.10162500000000001         0.97935552689812733     
  0.10200000000000001         0.40026787377386452     
  0.10237500000000001        -0.17602694848591494     
  0.10275000000000001        -0.72127380094227211     
  0.10312500000000001         -1.2120433359362850     
  0.10350000000000001         -1.6297734705774733     
  0.10387500000000001         -1.9613301056952492     
  0.10425000000000001         -2.1989490004458250     
  0.10462500000000001         -2.3396345851869107     
  0.10500000000000001         -2.3844756194234367     
  0.10537500000000001         -2.3388237743212179     
  0.10575000000000001         -2.2105042662514025     
  0.10612500000000001         -2.0098518113324260     
  0.10650000000000001         -1.7491299131644689     
  0.10687500000000001         -1.4409553612222104     
  0.10725000000000001         -1.0989203352297578     
  0.10762500000000001        -0.73638816644973271     
  0.10800000000000001        -0.36589842198128664     
  0.10837500000000001          4.6546282280850171E-004
  0.10875000000000001         0.35196495816757190     
  0.10912500000000000         0.67909573493482522     
  0.10950000000000000         0.97406912783007815     
  0.10987500000000000          1.2304001143624899     
  0.11025000000000000          1.4433565171195462     
  0.11062500000000001          1.6099230920573242     
  0.11100000000000000          1.7281054948350354     
  0.11137500000000002          1.7978270506091096     
  0.11175000000000000          1.8201526880158720     
  0.11212500000000002          1.7967613870784072     
  0.11250000000000000          1.7312119566121522     
  0.11287500000000002          1.6272196488852564     
  0.11325000000000000          1.4892023496640128     
  0.11362500000000002          1.3225964677419810     
  0.11400000000000000          1.1326163142416745     
  0.11437500000000002         0.92489236617285742     
  0.11475000000000000         0.70515481421139947     
  0.11512500000000002         0.47893281559102741     
  0.11550000000000001         0.25159619784979381     
  0.11587500000000002          2.8060079227801599E-002
  0.11625000000000001        -0.18685903703685880     
  0.11662500000000002        -0.38903080237108645     
  0.11700000000000001        -0.57500531767550589     
  0.11737499999999999        -0.74135958175963934     
  0.11775000000000001        -0.88571213622787970     
  0.11812499999999999         -1.0063861907873046     
  0.11850000000000001         -1.1016847439060016     
  0.11887499999999999         -1.1713128653004146     
  0.11925000000000001         -1.2149793098596482     
  0.11962500000000000         -1.2331866476668767     
  0.12000000000000001         -1.2268297815562785     
  0.12037500000000000         -1.1972398030131159     
  0.12075000000000001         -1.1462448311756370     
  0.12112500000000000         -1.0759010065231678     
  0.12150000000000001        -0.98836500472845357     
  0.12187500000000000        -0.88638556103549115     
  0.12225000000000001        -0.77263855325438258     
  0.12262500000000000        -0.64963443100058826     
  0.12300000000000001        -0.52037197519905631     
  0.12337500000000000        -0.38739804101696390     
  0.12375000000000001        -0.25348462362699997     
  0.12412500000000000        -0.12087686345272158     
  0.12450000000000001          7.9121415258025518E-003
  0.12487500000000000         0.13093165649969121     
  0.12525000000000003         0.24624181046135690     
  0.12562499999999999         0.35213852410757529     
  0.12600000000000000         0.44749043757104828     
  0.12637500000000002         0.53096042465706816     
  0.12675000000000003         0.60187679254854620     
  0.12712499999999999         0.65975631251363243     
  0.12750000000000000         0.70416276515063747     
  0.12787500000000002         0.73522079085432701     
  0.12825000000000003         0.75308595646203302     
  0.12862499999999999         0.75801531417262336     
  0.12900000000000000         0.75067170249532578     
  0.12937500000000002         0.73185245031778678     
  0.12975000000000003         0.70222395932192638     
  0.13012499999999999         0.66284184022651638     
  0.13050000000000000         0.61485439225046012     
  0.13087500000000002         0.55945052410761920     
  0.13125000000000003         0.49766456176626361     
  0.13162499999999999         0.43072737024837071     
  0.13200000000000001         0.36018200665640776     
  0.13237500000000002         0.28676699956596291     
  0.13275000000000003         0.21204762047027642     
  0.13312499999999999         0.13705625095282215     
  0.13350000000000001          6.2830652880336443E-002
  0.13387500000000002         -9.3108383221498919E-003
  0.13424999999999998         -7.8662899449316259E-002
  0.13462499999999999        -0.14420629951822969     
  0.13500000000000001        -0.20505594250114956     
  0.13537500000000002        -0.26063782439797478     
  0.13574999999999998        -0.31046219551641652     
  0.13612500000000000        -0.35365283526697594     
  0.13650000000000001        -0.39031934083406822     
  0.13687500000000002        -0.41986496254451566     
  0.13724999999999998        -0.44209629745152668     
  0.13762500000000000        -0.45715010511181819     
  0.13800000000000001        -0.46491029271462225     
  0.13837500000000003        -0.46555273304813649     
  0.13874999999999998        -0.45930582720746205     
  0.13912500000000000        -0.44669042413622884     
  0.13950000000000001        -0.42793288195066392     
  0.13987500000000003        -0.40368209248481918     
  0.14024999999999999        -0.37437263841227308     
  0.14062500000000000        -0.34074376607635765     
  0.14100000000000001        -0.30339868638358836     
  0.14137500000000003        -0.26300590065816032     
  0.14174999999999999        -0.22024142822346476     
  0.14212500000000000        -0.17593535596848439     
  0.14250000000000002        -0.13077130153181271     
  0.14287500000000003         -8.5333587976550440E-002
  0.14324999999999999         -4.0384014510026614E-002
  0.14362500000000000          3.4330282613135327E-003
  0.14400000000000002          4.5714084169497904E-002
  0.14437500000000003          8.5720799542199869E-002
  0.14474999999999999         0.12311889670512591     
  0.14512500000000000         0.15736569957888755     
  0.14550000000000002         0.18819997913503916     
  0.14587500000000003         0.21520869010324145     
  0.14624999999999999         0.23819078820295198     
  0.14662500000000001         0.25705452073804691     
  0.14700000000000002         0.27172521264959321     
  0.14737500000000003         0.28196106541544413     
  0.14774999999999999         0.28813283642978260     
  0.14812500000000001         0.29013866089238327     
  0.14850000000000002         0.28804278238483483     
  0.14887500000000004         0.28219964287332810     
  0.14924999999999999         0.27272393896247676     
  0.14962500000000001         0.25989815617902473     
  0.15000000000000002         0.24405313317264099     
  0.15037499999999998         0.22551307309585161     
  0.15075000000000000         0.20461644296886394     
  0.15112500000000001         0.18163823962121683     
  0.15150000000000002         0.15725426795111144     
  0.15187499999999998         0.13138274489828472     
  0.15225000000000000         0.10472202735836092     
  0.15262500000000001          7.7636344022269738E-002
  0.15300000000000002          5.0250070081880864E-002
  0.15337499999999998          2.3267312799751305E-002
  0.15375000000000000         -3.1609991178630434E-003
  0.15412500000000001         -2.8791796871969318E-002
  0.15450000000000003         -5.3072162949919260E-002
  0.15487499999999998         -7.5863327392670030E-002
  0.15525000000000000         -9.7068960739016441E-002
  0.15562500000000001        -0.11630510318347720     
  0.15600000000000003        -0.13337750706386425     
  0.15637499999999999        -0.14826665837492545     
  0.15675000000000000        -0.16074258389981916     
  0.15712500000000001        -0.17074169321006399     
  0.15750000000000003        -0.17813416432881346     
  0.15787499999999999        -0.18309954142285290     
  0.15825000000000000        -0.18536440003210214     
  0.15862500000000002        -0.18517706097634931     
  0.15900000000000003        -0.18267067503321127     
  0.15937499999999999        -0.17774393308353612     
  0.15975000000000000        -0.17062545654069491     
  0.16012500000000002        -0.16155248329755745     
  0.16050000000000003        -0.15064462934675768     
  0.16087499999999999        -0.13817320451065501     
  0.16125000000000000        -0.12420511667513617     
  0.16162500000000002        -0.10919368979940278     
  0.16200000000000003         -9.3279022785281329E-002
  0.16237499999999999         -7.6572022185101812E-002
  0.16275000000000001         -5.9432192618084939E-002
  0.16312500000000002         -4.2010043768913111E-002
  0.16350000000000003         -2.4331583844914316E-002
  0.16387499999999999         -7.0379607060403054E-003
  0.16425000000000001          1.0060273203320973E-002
  0.16462500000000002          2.6561483018930451E-002
  0.16500000000000004          4.2037745915097673E-002
  0.16537499999999999          5.6457637318799464E-002
  0.16575000000000001          6.9628344995938549E-002
  0.16612500000000002          8.1284703716406295E-002
  0.16650000000000004          9.1540725730134748E-002
  0.16687500000000000         0.10026534799234782     
  0.16725000000000001         0.10744748382766134     
  0.16762500000000002         0.11321566913788286     
  0.16799999999999998         0.11755225091866822     
  0.16837500000000000         0.12022454117823778     
  0.16875000000000001         0.12141520262111777     
  0.16912500000000003         0.12105436630871402     
  0.16949999999999998         0.11897998083089772     
  0.16987500000000000         0.11541564780495286     
  0.17025000000000001         0.11036301940329069     
  0.17062500000000003         0.10404598845356486     
  0.17099999999999999          9.6612938808078530E-002
  0.17137500000000000          8.8434432166532739E-002
  0.17175000000000001          7.9439839246165420E-002
  0.17212500000000003          6.9900896768595677E-002
  0.17249999999999999          6.0098607494718362E-002
  0.17287500000000000          4.9717704920796316E-002
  0.17325000000000002          3.8888399079078796E-002
  0.17362500000000003          2.7961152302195653E-002
  0.17399999999999999          1.6584172686653999E-002
  0.17437500000000000          5.0106505597802171E-003
  0.17475000000000002         -6.2718487030043527E-003
  0.17512500000000003         -1.7422210406219496E-002
  0.17549999999999999         -2.8183344105306221E-002
  0.17587500000000000         -3.7925623520867126E-002
  0.17625000000000002         -4.6880739558780873E-002
  0.17662500000000003         -5.4960991447106373E-002
  0.17699999999999999         -6.1717924067727706E-002
  0.17737500000000000         -6.7435346094814191E-002
  0.17775000000000002         -7.2149781267425148E-002
  0.17812500000000003         -7.5634981513347591E-002
  0.17849999999999999         -7.8158620988625055E-002
  0.17887500000000001         -7.9626776544555120E-002
  0.17925000000000002         -8.0106370208807842E-002
  0.17962500000000003         -7.9594882666965044E-002
  0.17999999999999999         -7.8317338750205800E-002
  0.18037500000000001         -7.6124800502404749E-002
  0.18075000000000002         -7.3140298962012240E-002
  0.18112500000000004         -6.9639073155983028E-002
  0.18149999999999999         -6.5395436243435107E-002
  0.18187500000000001         -6.0682487254217626E-002
  0.18225000000000002         -5.5376117167493785E-002
  0.18262500000000004         -4.9635508743570603E-002
  0.18300000000000000         -4.3330273280190471E-002
  0.18337500000000001         -3.6612222752120650E-002
  0.18375000000000002         -2.9478286664279221E-002
  0.18412499999999998         -2.1862453703240390E-002
  0.18450000000000000         -1.4122651834839194E-002
  0.18487500000000001         -6.1451434320537700E-003
  0.18525000000000003          1.9450766913402190E-003
  0.18562499999999998          9.7999860993115973E-003
  0.18600000000000000          1.7405915983878605E-002
  0.18637500000000001          2.4646574558623943E-002
  0.18675000000000003          3.1199403095806520E-002
  0.18712499999999999          3.7075307797788615E-002
  0.18750000000000000          4.2078753258405960E-002
  0.18787500000000001          4.6190544594431053E-002
  0.18825000000000003          4.9406491922871817E-002
  0.18862499999999999          5.1703726810620118E-002
  0.18900000000000000          5.3177368380972062E-002