  -1.4999999999999999E-002     0.0000000000000000     
  -1.4624999999999999E-002     0.0000000000000000     
  -1.4249999999999999E-002     0.0000000000000000     
  -1.3874999999999998E-002     0.0000000000000000     
  -1.3500000000000000E-002     0.0000000000000000     
  -1.3125000000000000E-002     0.0000000000000000     
  -1.2749999999999999E-002     0.0000000000000000     
  -1.2374999999999999E-002     0.0000000000000000     
  -1.2000000000000000E-002     0.0000000000000000     
  -1.1625000000000000E-002     0.0000000000000000     
  -1.1250000000000000E-002     0.0000000000000000     
  -1.0874999999999999E-002     0.0000000000000000     
  -1.0499999999999999E-002     0.0000000000000000     
  -1.0124999999999999E-002     0.0000000000000000     
  -9.7499999999999983E-003     0.0000000000000000     
  -9.3749999999999979E-003     0.0000000000000000     
  -8.9999999999999993E-003     0.0000000000000000     
  -8.6249999999999990E-003     0.0000000000000000     
  -8.2500000000000004E-003     0.0000000000000000     
  -7.8750000000000001E-003     0.0000000000000000     
  -7.4999999999999989E-003     0.0000000000000000     
  -7.1249999999999994E-003     0.0000000000000000     
  -6.7499999999999991E-003     0.0000000000000000     
  -6.3749999999999987E-003     0.0000000000000000     
  -5.9999999999999984E-003     0.0000000000000000     
  -5.6249999999999998E-003     0.0000000000000000     
  -5.2499999999999995E-003     0.0000000000000000     
  -4.8749999999999991E-003     0.0000000000000000     
  -4.4999999999999988E-003     0.0000000000000000     
  -4.1249999999999985E-003     0.0000000000000000     
  -3.7499999999999981E-003     0.0000000000000000     
  -3.3749999999999995E-003     0.0000000000000000     
  -2.9999999999999992E-003     0.0000000000000000     
  -2.6249999999999989E-003     0.0000000000000000     
  -2.2499999999999985E-003     0.0000000000000000     
  -1.8749999999999982E-003     0.0000000000000000     
  -1.4999999999999996E-003     0.0000000000000000     
  -1.1249999999999993E-003     0.0000000000000000     
  -7.4999999999999893E-004     0.0000000000000000     
  -3.7499999999999860E-004     0.0000000000000000     
   1.7347234759768071E-018     0.0000000000000000     
   3.7500000000000207E-004     0.0000000000000000     
   7.5000000000000067E-004     0.0000000000000000     
   1.1250000000000010E-003     0.0000000000000000     
   1.5000000000000013E-003     0.0000000000000000     
   1.8750000000000017E-003     0.0000000000000000     
   2.2500000000000020E-003     0.0000000000000000     
   2.6250000000000023E-003     0.0000000000000000     
   3.0000000000000027E-003     0.0000000000000000     
   3.3750000000000030E-003     0.0000000000000000     
   3.7499999999999999E-003     0.0000000000000000     
   4.1250000000000002E-003     0.0000000000000000     
   4.5000000000000005E-003     0.0000000000000000     
   4.8750000000000009E-003     0.0000000000000000     
   5.2500000000000012E-003     0.0000000000000000     
   5.6250000000000015E-003     0.0000000000000000     
   6.0000000000000019E-003     0.0000000000000000     
   6.3750000000000022E-003     0.0000000000000000     
   6.7500000000000025E-003     0.0000000000000000     
   7.1250000000000029E-003     0.0000000000000000     
   7.5000000000000032E-003     0.0000000000000000     
   7.8750000000000001E-003     0.0000000000000000     
   8.2500000000000004E-003     0.0000000000000000     
   8.6250000000000007E-003     0.0000000000000000     
   9.0000000000000011E-003     0.0000000000000000     
   9.3750000000000014E-003     0.0000000000000000     
   9.7500000000000017E-003     0.0000000000000000     
   1.0125000000000002E-002     0.0000000000000000     
   1.0500000000000002E-002     0.0000000000000000     
   1.0875000000000003E-002     0.0000000000000000     
   1.1250000000000003E-002     0.0000000000000000     
   1.1625000000000003E-002     0.0000000000000000     
   1.2000000000000000E-002     0.0000000000000000     
   1.2375000000000001E-002     0.0000000000000000     
   1.2750000000000001E-002     0.0000000000000000     
   1.3125000000000001E-002     0.0000000000000000     
   1.3500000000000002E-002     0.0000000000000000     
   1.3875000000000002E-002     0.0000000000000000     
   1.4250000000000002E-002     0.0000000000000000     
   1.4625000000000003E-002     0.0000000000000000     
   1.5000000000000003E-002     0.0000000000000000     
   1.5375000000000003E-002     0.0000000000000000     
   1.5750000000000004E-002     0.0000000000000000     
   1.6125000000000000E-002     0.0000000000000000     
   1.6500000000000001E-002     0.0000000000000000     
   1.6875000000000001E-002     0.0000000000000000     
   1.7250000000000001E-002     0.0000000000000000     
   1.7625000000000002E-002     0.0000000000000000     
   1.8000000000000002E-002     0.0000000000000000     
   1.8375000000000002E-002     0.0000000000000000     
   1.8750000000000003E-002     1.4970296675046790E-053
   1.9125000000000003E-002     8.5735925473235245E-050
   1.9500000000000003E-002     6.2282497512705035E-038
   1.9875000000000004E-002     4.9188807417342685E-035
   2.0250000000000004E-002     2.5993304415465993E-034
   2.0625000000000004E-002    -4.3335897810689922E-034
   2.1000000000000005E-002    -8.4032146936718083E-032
   2.1375000000000005E-002    -2.1161360995580088E-031
   2.1750000000000005E-002     3.1324141247765478E-030
   2.2125000000000006E-002     1.7817395371303276E-030
   2.2499999999999999E-002    -9.2734074720493849E-029
   2.2875000000000000E-002     3.9192187413829063E-028
   2.3250000000000000E-002    -3.5858014028665246E-028
   2.3625000000000000E-002    -4.0795053688908123E-027
   2.4000000000000000E-002     2.7209843130741013E-026
   2.4375000000000001E-002    -1.1465063994690160E-025
   2.4750000000000001E-002     5.1623160388929678E-025
   2.5125000000000001E-002     2.2627782262188742E-024
   2.5500000000000002E-002     8.6907304800643961E-024
   2.5875000000000002E-002     3.2775599592677752E-023
   2.6250000000000002E-002     1.2459950007367759E-022
   2.6625000000000003E-002     4.6241382492434127E-022
   2.7000000000000003E-002     1.6877802361038649E-021
   2.7375000000000003E-002     6.0463615869541439E-021
   2.7750000000000004E-002     2.1269091204762621E-020
   2.8125000000000004E-002     7.3460003208711930E-020
   2.8500000000000004E-002     2.4910742506633227E-019
   2.8875000000000005E-002     8.2938531256963810E-019
   2.9250000000000005E-002     2.7111402812179926E-018
   2.9625000000000005E-002     8.7008486940149557E-018
   3.0000000000000006E-002     2.7414668403075785E-017
   3.0375000000000006E-002     8.4802018153551981E-017
   3.0750000000000000E-002     2.5752485494854596E-016
   3.1125000000000000E-002     7.6774694014506063E-016
   3.1500000000000000E-002     2.2469475120868101E-015
   3.1875000000000001E-002     6.4554939768284616E-015
   3.2250000000000001E-002     1.8206237387210663E-014
   3.2625000000000001E-002     5.0402769852111096E-014
   3.3000000000000002E-002     1.3696675856966825E-013
   3.3375000000000002E-002     3.6534062798099661E-013
   3.3750000000000002E-002     9.5649890752444681E-013
   3.4125000000000003E-002     2.4578717964949762E-012
   3.4500000000000003E-002     6.1988569650865033E-012
   3.4875000000000003E-002     1.5343396079124102E-011
   3.5250000000000004E-002     3.7271199119872951E-011
   3.5625000000000004E-002     8.8848609227204750E-011
   3.6000000000000004E-002     2.0784223324937561E-010
   3.6375000000000005E-002     4.7708582190798415E-010
   3.6750000000000005E-002     1.0745560705459050E-009
   3.7125000000000005E-002     2.3745970158243476E-009
   3.7500000000000006E-002     5.1483966914381082E-009
   3.7875000000000006E-002     1.0950565503535968E-008
   3.8250000000000006E-002     2.2848418226827901E-008
   3.8625000000000007E-002     4.6763129528287658E-008
   3.9000000000000000E-002     9.3872934118359959E-008
   3.9375000000000000E-002     1.8481182213777755E-007
   3.9750000000000001E-002     3.5680590870069377E-007
   4.0125000000000001E-002     6.7546974840837352E-007
   4.0500000000000001E-002     1.2537193042642625E-006
   4.0875000000000002E-002     2.2812127893517927E-006
   4.1250000000000002E-002     4.0686020183787641E-006
   4.1625000000000002E-002     7.1117165588346529E-006
   4.2000000000000003E-002     1.2181035012199917E-005
   4.2375000000000003E-002     2.0441029364780230E-005
   4.2750000000000003E-002     3.3600064217181516E-005
   4.3125000000000004E-002     5.4088764021089885E-005
   4.3500000000000004E-002     8.5250374715239237E-005
   4.3875000000000004E-002     1.3151904343542184E-004
   4.4250000000000005E-002     1.9854486603934385E-004
   4.4625000000000005E-002     2.9318615044173906E-004
   4.5000000000000005E-002     4.2334289970496022E-004
   4.5375000000000006E-002     5.9743023879430337E-004
   4.5750000000000006E-002     8.2360831210814974E-004
   4.6125000000000006E-002     1.1084713982772321E-003
   4.6500000000000007E-002     1.4554523995925915E-003
   4.6875000000000007E-002     1.8628533596249089E-003
   4.7250000000000000E-002     2.3218597756940462E-003
   4.7625000000000001E-002     2.8149577677217819E-003
   4.8000000000000001E-002     3.3147057572615862E-003
   4.8375000000000001E-002     3.7842699731013714E-003
   4.8750000000000002E-002     4.1794332936339190E-003
   4.9125000000000002E-002     4.4524741759889644E-003
   4.9500000000000002E-002     4.5577204832698299E-003
   4.9875000000000003E-002     4.4603282992034029E-003
   5.0250000000000003E-002     4.1413994882961063E-003
   5.0625000000000003E-002     3.6086531694118650E-003
   5.1000000000000004E-002     2.8972428413382174E-003
   5.1375000000000004E-002     2.0712800554227848E-003
   5.1750000000000004E-002     1.2209211183610222E-003
   5.2125000000000005E-002     4.4523333349801627E-004
   5.2500000000000005E-002    -1.5688429795244428E-004
   5.2875000000000005E-002    -5.1176257584032033E-004
   5.3250000000000006E-002    -5.8644665501842829E-004
   5.3625000000000006E-002    -4.0751319505814620E-004
   5.4000000000000006E-002    -6.6533418797823726E-005
   5.4375000000000007E-002     2.7960368821434029E-004
   5.4750000000000007E-002     4.2656460314283498E-004
   5.5125000000000007E-002     1.4449652602217662E-004
   5.5500000000000008E-002    -7.8908068652677602E-004
   5.5875000000000008E-002    -2.5408612718308132E-003
   5.6250000000000008E-002    -5.2054977343149508E-003
   5.6625000000000009E-002    -8.7597636056186475E-003
   5.7000000000000009E-002    -1.3066247851377208E-002
   5.7375000000000009E-002    -1.7864711414307979E-002
   5.7750000000000010E-002    -2.2806494464202264E-002
   5.8125000000000010E-002    -2.7480096571802448E-002
   5.8500000000000010E-002    -3.1465777754048498E-002
   5.8875000000000011E-002    -3.4373663998398737E-002
   5.9250000000000011E-002    -3.5902069227331218E-002
   5.9624999999999997E-002    -3.5849079832910691E-002
   5.9999999999999998E-002    -3.4147318448908101E-002
   6.0374999999999998E-002    -3.0855800020949817E-002
   6.0749999999999998E-002    -2.6142211990962338E-002
   6.1124999999999999E-002    -2.0260238874713458E-002
   6.1499999999999999E-002    -1.3518309946496028E-002
   6.1874999999999999E-002    -6.2322585779501088E-003
   6.2250000000000000E-002     1.2877778910636707E-003
   6.2625000000000000E-002     8.7605545217505319E-003
   6.3000000000000000E-002     1.5966114263347771E-002
   6.3375000000000001E-002     2.2708251090438676E-002
   6.3750000000000001E-002     2.8840132913193386E-002
   6.4125000000000001E-002     3.4235383250923714E-002
   6.4500000000000002E-002     3.8767678148843729E-002
   6.4875000000000002E-002     4.2319058566837098E-002
   6.5250000000000002E-002     4.4750808537520233E-002
   6.5625000000000003E-002     4.5925456403811162E-002
   6.6000000000000003E-002     4.5698442106478596E-002
   6.6375000000000003E-002     4.3959449512218862E-002
   6.6750000000000004E-002     4.0642467010663902E-002
   6.7125000000000004E-002     3.5758974394751550E-002
   6.7500000000000004E-002     2.9420145013058806E-002
   6.7875000000000005E-002     2.1869789647672791E-002
   6.8250000000000005E-002     1.3471410787267601E-002
   6.8625000000000005E-002     4.7051395360633262E-003
   6.9000000000000006E-002    -3.8431234276165320E-003
   6.9375000000000006E-002    -1.1571111335154649E-002
   6.9750000000000006E-002    -1.7853631608008416E-002
   7.0125000000000007E-002    -2.2179601200174443E-002
   7.0500000000000007E-002    -2.4162212682467162E-002
   7.0875000000000007E-002    -2.3622699858436808E-002
   7.1250000000000008E-002    -2.0618383406673435E-002
   7.1625000000000008E-002    -1.5443527214135154E-002
   7.2000000000000008E-002    -8.6278126660352776E-003
   7.2375000000000009E-002    -8.7256774352940524E-004
   7.2750000000000009E-002     7.0096788654357891E-003
   7.3125000000000009E-002     1.4196099313105129E-002
   7.3500000000000010E-002     1.9916702215513990E-002
   7.3875000000000010E-002     2.3562780259325303E-002
   7.4250000000000010E-002     2.4738758636742967E-002
   7.4625000000000011E-002     2.3311524778121380E-002
   7.5000000000000011E-002     1.9419283430479287E-002
   7.5375000000000011E-002     1.3451474072978285E-002
   7.5750000000000012E-002     6.0305019659621416E-003
   7.6124999999999998E-002    -2.0895883129558221E-003
   7.6499999999999999E-002    -1.0049288389774983E-002
   7.6874999999999999E-002    -1.7017976644976875E-002
   7.7249999999999999E-002    -2.2243081658893656E-002
   7.7625000000000000E-002    -2.5124842429496471E-002
   7.8000000000000000E-002    -2.5300334346772820E-002
   7.8375000000000000E-002    -2.2649408272080361E-002
   7.8750000000000001E-002    -1.7345328324770221E-002
   7.9125000000000001E-002    -9.8082809051883262E-003
   7.9500000000000001E-002    -6.9481151689855655E-004
   7.9875000000000002E-002     9.1701476330916971E-003
   8.0250000000000002E-002     1.8876154636305362E-002
   8.0625000000000002E-002     2.7514094235102930E-002
   8.1000000000000003E-002     3.4253910656197817E-002
   8.1375000000000003E-002     3.8440121592933599E-002
   8.1750000000000003E-002     3.9647173904451785E-002
   8.2125000000000004E-002     3.7716842663128775E-002
   8.2500000000000004E-002     3.2771800878689188E-002
   8.2875000000000004E-002     2.5200319300894274E-002
   8.3250000000000005E-002     1.5615363328083552E-002
   8.3625000000000005E-002     4.7815647988741928E-003
   8.4000000000000005E-002    -6.4474941929643622E-003
   8.4375000000000006E-002    -1.7224290863897696E-002
   8.4750000000000006E-002    -2.6790289519895566E-002
   8.5125000000000006E-002    -3.4537287538913393E-002
   8.5500000000000007E-002    -4.0106614109904556E-002
   8.5875000000000007E-002    -4.3377481530406076E-002
   8.6250000000000007E-002    -4.4519498268974722E-002
   8.6625000000000008E-002    -4.3985183099823681E-002
   8.7000000000000008E-002    -4.2402235577061909E-002
   8.7375000000000008E-002    -4.0588193338148872E-002
   8.7750000000000009E-002    -3.9353958505221998E-002
   8.8125000000000009E-002    -3.9464683672387327E-002
   8.8500000000000009E-002    -4.1484477159798916E-002
   8.8875000000000010E-002    -4.5678122343380673E-002
   8.9250000000000010E-002    -5.1984401261997451E-002
   8.9625000000000010E-002    -5.9938428762605321E-002
   9.0000000000000011E-002    -6.8755537033914876E-002
   9.0375000000000011E-002    -7.7370325674660567E-002
   9.0750000000000011E-002    -8.4597177065776435E-002
   9.1125000000000012E-002    -8.9216162206720379E-002
   9.1500000000000012E-002    -9.0195133606960770E-002
   9.1875000000000012E-002    -8.6735528778190740E-002
   9.2250000000000013E-002    -7.8406192894575483E-002
   9.2624999999999999E-002    -6.5192119567739237E-002
   9.2999999999999999E-002    -4.7422552052762412E-002
   9.3375000000000000E-002    -2.5799802524879272E-002
   9.3750000000000000E-002    -1.2184748275567642E-003
   9.4125000000000000E-002     2.5223674789243672E-002
   9.4500000000000001E-002     5.2419317142763808E-002
   9.4875000000000001E-002     7.9247310024151793E-002
   9.5250000000000001E-002    0.10463522982274462     
   9.5625000000000002E-002    0.12761137817217505     
   9.6000000000000002E-002    0.14722413564934816     
   9.6375000000000002E-002    0.16264620204799041     
   9.6750000000000003E-002    0.17306648288440662     
   9.7125000000000003E-002    0.17783612253679631     
   9.7500000000000003E-002    0.17639757732478198     
   9.7875000000000004E-002    0.16844225534117740     
   9.8250000000000004E-002    0.15396638686342853     
   9.8625000000000004E-002    0.13326251904541986     
   9.9000000000000005E-002    0.10707431248807042     
   9.9375000000000005E-002     7.6489305985181083E-002
   9.9750000000000005E-002     4.2936332861207627E-002
  0.10012500000000001          8.0952452104695420E-003
  0.10050000000000001         -2.6247389726340893E-002
  0.10087500000000001         -5.8361967510884828E-002
  0.10125000000000001         -8.6634855181620965E-002
  0.10162500000000001        -0.10979612114403800     
  0.10200000000000001        -0.12691014088841834     
  0.10237500000000001        -0.13743374173643791     
  0.10275000000000001        -0.14129638095732616     
  0.10312500000000001        -0.13866822818499372     
  0.10350000000000001        -0.13013525422321037     
  0.10387500000000001        -0.11642833094991815     
  0.10425000000000001         -9.8439048695295545E-002
  0.10462500000000001         -7.7174144274931744E-002
  0.10500000000000001         -5.3606613710718738E-002
  0.10537500000000001         -2.8762908905217838E-002
  0.10575000000000001         -3.5958091356190795E-003
  0.10612500000000001          2.0974674975443797E-002
  0.10650000000000001          4.4067710655335129E-002
  0.10687500000000001          6.4878218046220487E-002
  0.10725000000000001          8.2654682756759038E-002
  0.10762500000000001          9.6688118001912488E-002
  0.10800000000000001         0.10638855325456795     
  0.10837500000000001         0.11123422317548497     
  0.10875000000000001         0.11083716578331712     
  0.10912500000000000         0.10500938596606196     
  0.10950000000000000          9.3715694715299780E-002
  0.10987500000000000          7.7266478697529839E-002
  0.11025000000000000          5.6184060097053991E-002
  0.11062500000000001          3.1370525376861150E-002
  0.11100000000000000          3.9826486552028816E-003
  0.11137500000000002         -2.4516674448230451E-002
  0.11175000000000000         -5.2536686510943162E-002
  0.11212500000000002         -7.8398219864751192E-002
  0.11250000000000000        -0.10047271813300487     
  0.11287500000000002        -0.11739898415052601     
  0.11325000000000000        -0.12804526137110195     
  0.11362500000000002        -0.13177762275043953     
  0.11400000000000000        -0.12835621929893234     
  0.11437500000000002        -0.11802742984193709     
  0.11475000000000000        -0.10141423313114788     
  0.11512500000000002         -7.9509021773604416E-002
  0.11550000000000001         -5.3507514891691040E-002
  0.11587500000000002         -2.4787586955215494E-002
  0.11625000000000001          5.2014647379229357E-003
  0.11662500000000002          3.5028591252180850E-002
  0.11700000000000001          6.3224982046633002E-002
  0.11737499999999999          8.8433497450086676E-002
  0.11775000000000001         0.10931110991839585     
  0.11812499999999999         0.12469687009917058     
  0.11850000000000001         0.13352436031419596     
  0.11887499999999999         0.13498792250046820     
  0.11925000000000001         0.12862778730232252     
  0.11962500000000000         0.11431779066530480     
  0.12000000000000001          9.2498971895364102E-002
  0.12037500000000000          6.4076085862920518E-002
  0.12075000000000001          3.0541056216334680E-002
  0.12112500000000000         -6.1669581448363098E-003
  0.12150000000000001         -4.3688061963703013E-002
  0.12187500000000000         -7.9448991538287189E-002
  0.12225000000000001        -0.11088495384377517     
  0.12262500000000000        -0.13558923516299193     
  0.12300000000000001        -0.15162752047237363     
  0.12337500000000000        -0.15768528199937759     
  0.12375000000000001        -0.15326756870473321     
  0.12412500000000000        -0.13868700118694161     
  0.12450000000000001        -0.11523326002713752     
  0.12487500000000000         -8.4842774045744987E-002
  0.12525000000000003         -5.0110612785037964E-002
  0.12562499999999999         -1.3952339723200639E-002
  0.12600000000000000          2.0775453151427058E-002
  0.12637500000000002          5.1364756142918355E-002
  0.12675000000000003          7.5807308313221911E-002
  0.12712499999999999          9.2699881577249219E-002
  0.12750000000000000         0.10160569241919928     
  0.12787500000000002         0.10284348460313555     
  0.12825000000000003          9.7470991376486099E-002
  0.12862499999999999          8.7094339581494068E-002
  0.12900000000000000          7.3484027759622900E-002
  0.12937500000000002          5.8504479145516972E-002
  0.12975000000000003          4.3677018222969398E-002
  0.13012499999999999          3.0153699296750609E-002
  0.13050000000000000          1.8557136025700010E-002
  0.13087500000000002          9.0410199305858419E-003
  0.13125000000000003          1.3371835160426457E-003
  0.13162499999999999         -5.0262759208085841E-003
  0.13200000000000001         -1.0568459017391705E-002
  0.13237500000000002         -1.5725626684729606E-002
  0.13275000000000003         -2.0551134666363872E-002
  0.13312499999999999         -2.4929173676054101E-002
  0.13350000000000001         -2.8260448043009534E-002
  0.13387500000000002         -2.9862373291245782E-002
  0.13424999999999998         -2.8948577793283931E-002
  0.13462499999999999         -2.4871444295647561E-002
  0.13500000000000001         -1.7427986161974187E-002
  0.13537500000000002         -6.8456292743880416E-003
  0.13574999999999998          5.9533452627130619E-003
  0.13612500000000000          1.9521792645482455E-002
  0.13650000000000001          3.1955669300069510E-002
  0.13687500000000002          4.1159374155810488E-002
  0.13724999999999998          4.5257042135255457E-002
  0.13762500000000000          4.2807808589344742E-002
  0.13800000000000001          3.3296767488635769E-002
  0.13837500000000003          1.7238549732994414E-002
  0.13874999999999998         -3.7745392645778609E-003
  0.13912500000000000         -2.7096871353277541E-002
  0.13950000000000001         -4.9467584323483596E-002
  0.13987500000000003         -6.7402249001606032E-002
  0.14024999999999999         -7.7744578995858765E-002
  0.14062500000000000         -7.8196388526131422E-002
  0.14100000000000001         -6.7777968540785993E-002
  0.14137500000000003         -4.7001320844452320E-002
  0.14174999999999999         -1.7967093243030415E-002
  0.14212500000000000          1.5920809231617747E-002
  0.14250000000000002          5.0339028340538529E-002
  0.14287500000000003          8.0681765370602843E-002
  0.14324999999999999         0.10265425236002881     
  0.14362500000000000         0.11289266289910205     
  0.14400000000000002         0.10948228222533023     
  0.14437500000000003          9.2116859490659564E-002
  0.14474999999999999          6.2297963943560367E-002
  0.14512500000000000          2.3004718636102654E-002
  0.14550000000000002         -2.1627417808123620E-002
  0.14587500000000003         -6.6865059647709557E-002
  0.14624999999999999        -0.10793873061180263     
  0.14662500000000001        -0.14067285834791732     
  0.14700000000000002        -0.16191464204049624     
  0.14737500000000003        -0.16981362320495966     
  0.14774999999999999        -0.16404956904861429     
  0.14812500000000001        -0.14561245339987752     
  0.14850000000000002        -0.11669812949194740     
  0.14887500000000004         -8.0271663582221986E-002
  0.14924999999999999         -3.9630154022239072E-002
  0.14962500000000001          1.9184496800657980E-003
  0.15000000000000002          4.1487960321553240E-002
  0.15037499999999998          7.6781451059379655E-002
  0.15075000000000000         0.10619762915012172     
  0.15112500000000001         0.12877540353683845     
  0.15150000000000002         0.14418298590275011     
  0.15187499999999998         0.15231194007359297     
  0.15225000000000000         0.15333194563174313     
  0.15262500000000001         0.14748030415995739     
  0.15300000000000002         0.13489085288069330     
  0.15337499999999998         0.11589790653592252     
  0.15375000000000000          9.0871300748688488E-002
  0.15412500000000001          6.0586252034592294E-002
  0.15450000000000003          2.6236075784499813E-002
  0.15487499999999998         -1.0407054315583683E-002
  0.15525000000000000         -4.7019303443813928E-002
  0.15562500000000001         -8.0934666315567477E-002
  0.15600000000000003        -0.10923492603043973     
  0.15637499999999999        -0.12928827643492891     
  0.15675000000000000        -0.13897500745300526     
  0.15712500000000001        -0.13707192254051456     
  0.15750000000000003        -0.12354827878267922     
  0.15787499999999999         -9.9569150678103624E-002
  0.15825000000000000         -6.7475129991641875E-002
  0.15862500000000002         -3.0532677969683054E-002
  0.15900000000000003          7.4950591454091345E-003
  0.15937499999999999          4.2815448785119808E-002
  0.15975000000000000          7.2033682086649592E-002
  0.16012500000000002          9.2621958705467536E-002
  0.16050000000000003         0.10319823738643186     
  0.16087499999999999         0.10359725380813459     
  0.16125000000000000          9.4851607307933586E-002
  0.16162500000000002          7.8990441256604677E-002
  0.16200000000000003          5.8622839734833676E-002
  0.16237499999999999          3.6584629733336406E-002
  0.16275000000000001          1.5617400431825551E-002
  0.16312500000000002         -2.1386742014280055E-003
  0.16350000000000003         -1.5207078884404241E-002
  0.16387499999999999         -2.2917463086036073E-002
  0.16425000000000001         -2.5409401837967895E-002
  0.16462500000000002         -2.3396736003887621E-002
  0.16500000000000004         -1.8043445031608565E-002
  0.16537499999999999         -1.0671718712642443E-002
  0.16575000000000001         -2.5371077975016661E-003
  0.16612500000000002          5.1756937086407055E-003
  0.16650000000000004          1.1601065298234521E-002
  0.16687500000000000          1.5993999015236723E-002
  0.16725000000000001          1.7765788004614452E-002
  0.16762500000000002          1.6350208608467327E-002
  0.16799999999999998          1.1247665935476582E-002
  0.16837500000000000          1.9299591359899530E-003
  0.16875000000000001         -1.1948226276049717E-002
  0.16912500000000003         -3.0399681124083994E-002
  0.16949999999999998         -5.2957121033225973E-002
  0.16987500000000000         -7.8430656013765074E-002
  0.17025000000000001        -0.10500598282957106     
  0.17062500000000003        -0.13003285792091573     
  0.17099999999999999        -0.15064326164397324     
  0.17137500000000000        -0.16374652984041593     
  0.17175000000000001        -0.16675923992378766     
  0.17212500000000003        -0.15795568624388168     
  0.17249999999999999        -0.13677999983989356     
  0.17287500000000000        -0.10426331721010718     
  0.17325000000000002         -6.2709580765692233E-002
  0.17362500000000003         -1.5746213349088919E-002
  0.17399999999999999          3.2364297137498027E-002
  0.17437500000000000          7.7213549021775379E-002
  0.17475000000000002         0.11483596711068750     
  0.17512500000000003         0.14235243660300234     
  0.17549999999999999         0.15823633626298622     
  0.17587500000000000         0.16259560579635549     
  0.17625000000000002         0.15691014676193363     
  0.17662500000000003         0.14384927397028208     
  0.17699999999999999         0.12677661887911870     
  0.17737500000000000         0.10918786009351315     
  0.17775000000000002          9.4210563059120678E-002
  0.17812500000000003          8.4233955879747829E-002
  0.17849999999999999          8.0654560113370133E-002
  0.17887500000000001          8.3705885450607476E-002
  0.17925000000000002          9.2665390026036867E-002
  0.17962500000000003         0.10588965786822188     
  0.17999999999999999         0.12106814271021957     
  0.18037500000000001         0.13553368536779445     
  0.18075000000000002         0.14636874353310103     
  0.18112500000000004         0.15069992292443318     
  0.18149999999999999         0.14580703991571986     
  0.18187500000000001         0.12936625901710885     
  0.18225000000000002          9.9620671379562667E-002
  0.18262500000000004          5.5636208244997681E-002
  0.18300000000000000         -2.4939514969543244E-003
  0.18337500000000001         -7.3406240459777033E-002
  0.18375000000000002        -0.15426120122765730     
  0.18412499999999998        -0.24094440553634219     
  0.18450000000000000        -0.32800282032326433     
  0.18487500000000001        -0.40912438808916990     
  0.18525000000000003        -0.47770056119330245     
  0.18562499999999998        -0.52745913075919737     
  0.18600000000000000        -0.55318084942371515     
  0.18637500000000001        -0.55125171132824824     
  0.18675000000000003        -0.52045871561563595     
  0.18712499999999999        -0.46173979161546075     
  0.18750000000000000        -0.37859352526046181     
  0.18787500000000001        -0.27641284134030164     
  0.18825000000000003        -0.16200559503955575     
  0.18862499999999999         -4.2734014538589986E-002
  0.18900000000000000          7.4225525545604715E-002