  -1.4999999999999999E-002     0.0000000000000000     
  -1.4624999999999999E-002     0.0000000000000000     
  -1.4249999999999999E-002     0.0000000000000000     
  -1.3874999999999998E-002     0.0000000000000000     
  -1.3500000000000000E-002     0.0000000000000000     
  -1.3125000000000000E-002     0.0000000000000000     
  -1.2749999999999999E-002     0.0000000000000000     
  -1.2374999999999999E-002     0.0000000000000000     
  -1.2000000000000000E-002     0.0000000000000000     
  -1.1625000000000000E-002     0.0000000000000000     
  -1.1250000000000000E-002     0.0000000000000000     
  -1.0874999999999999E-002     0.0000000000000000     
  -1.0499999999999999E-002     0.0000000000000000     
  -1.0124999999999999E-002     0.0000000000000000     
  -9.7499999999999983E-003     0.0000000000000000     
  -9.3749999999999979E-003     0.0000000000000000     
  -8.9999999999999993E-003     0.0000000000000000     
  -8.6249999999999990E-003     0.0000000000000000     
  -8.2500000000000004E-003     0.0000000000000000     
  -7.8750000000000001E-003     0.0000000000000000     
  -7.4999999999999989E-003     0.0000000000000000     
  -7.1249999999999994E-003     0.0000000000000000     
  -6.7499999999999991E-003     0.0000000000000000     
  -6.3749999999999987E-003     0.0000000000000000     
  -5.9999999999999984E-003     0.0000000000000000     
  -5.6249999999999998E-003     0.0000000000000000     
  -5.2499999999999995E-003     0.0000000000000000     
  -4.8749999999999991E-003     0.0000000000000000     
  -4.4999999999999988E-003     0.0000000000000000     
  -4.1249999999999985E-003     0.0000000000000000     
  -3.7499999999999981E-003     0.0000000000000000     
  -3.3749999999999995E-003     0.0000000000000000     
  -2.9999999999999992E-003     0.0000000000000000     
  -2.6249999999999989E-003     0.0000000000000000     
  -2.2499999999999985E-003     0.0000000000000000     
  -1.8749999999999982E-003     0.0000000000000000     
  -1.4999999999999996E-003     0.0000000000000000     
  -1.1249999999999993E-003     0.0000000000000000     
  -7.4999999999999893E-004     0.0000000000000000     
  -3.7499999999999860E-004     0.0000000000000000     
   1.7347234759768071E-018     0.0000000000000000     
   3.7500000000000207E-004     0.0000000000000000     
   7.5000000000000067E-004     0.0000000000000000     
   1.1250000000000010E-003     0.0000000000000000     
   1.5000000000000013E-003     0.0000000000000000     
   1.8750000000000017E-003     0.0000000000000000     
   2.2500000000000020E-003     0.0000000000000000     
   2.6250000000000023E-003     0.0000000000000000     
   3.0000000000000027E-003     0.0000000000000000     
   3.3750000000000030E-003     0.0000000000000000     
   3.7499999999999999E-003     0.0000000000000000     
   4.1250000000000002E-003     0.0000000000000000     
   4.5000000000000005E-003     0.0000000000000000     
   4.8750000000000009E-003     0.0000000000000000     
   5.2500000000000012E-003     0.0000000000000000     
   5.6250000000000015E-003     0.0000000000000000     
   6.0000000000000019E-003     0.0000000000000000     
   6.3750000000000022E-003     0.0000000000000000     
   6.7500000000000025E-003     0.0000000000000000     
   7.1250000000000029E-003     0.0000000000000000     
   7.5000000000000032E-003     0.0000000000000000     
   7.8750000000000001E-003     0.0000000000000000     
   8.2500000000000004E-003     0.0000000000000000     
   8.6250000000000007E-003     0.0000000000000000     
   9.0000000000000011E-003     0.0000000000000000     
   9.3750000000000014E-003     0.0000000000000000     
   9.7500000000000017E-003     0.0000000000000000     
   1.0125000000000002E-002     0.0000000000000000     
   1.0500000000000002E-002     0.0000000000000000     
   1.0875000000000003E-002     0.0000000000000000     
   1.1250000000000003E-002     0.0000000000000000     
   1.1625000000000003E-002     0.0000000000000000     
   1.2000000000000000E-002     0.0000000000000000     
   1.2375000000000001E-002     0.0000000000000000     
   1.2750000000000001E-002     0.0000000000000000     
   1.3125000000000001E-002     0.0000000000000000     
   1.3500000000000002E-002     0.0000000000000000     
   1.3875000000000002E-002     0.0000000000000000     
   1.4250000000000002E-002     0.0000000000000000     
   1.4625000000000003E-002     0.0000000000000000     
   1.5000000000000003E-002     0.0000000000000000     
   1.5375000000000003E-002     0.0000000000000000     
   1.5750000000000004E-002     0.0000000000000000     
   1.6125000000000000E-002     0.0000000000000000     
   1.6500000000000001E-002     0.0000000000000000     
   1.6875000000000001E-002     0.0000000000000000     
   1.7250000000000001E-002     0.0000000000000000     
   1.7625000000000002E-002     0.0000000000000000     
   1.8000000000000002E-002     0.0000000000000000     
   1.8375000000000002E-002     0.0000000000000000     
   1.8750000000000003E-002    -1.1318647567979784E-051
   1.9125000000000003E-002    -8.4061931090783744E-038
   1.9500000000000003E-002    -2.6962807691453336E-035
   1.9875000000000004E-002    -4.7002652700171042E-034
   2.0250000000000004E-002    -5.3254171304027270E-033
   2.0625000000000004E-002    -5.9339779588456604E-033
   2.1000000000000005E-002     2.9395309452180807E-031
   2.1375000000000005E-002     6.1878167623489908E-031
   2.1750000000000005E-002    -1.0671903686921303E-029
   2.2125000000000006E-002     1.2075541323345700E-029
   2.2499999999999999E-002     2.1343405437558988E-028
   2.2875000000000000E-002    -1.3835366461266640E-027
   2.3250000000000000E-002     4.5201058396303569E-027
   2.3625000000000000E-002    -9.5799880725505918E-027
   2.4000000000000000E-002     1.1478957142192127E-026
   2.4375000000000001E-002    -2.6745003391897756E-027
   2.4750000000000001E-002     1.7754723343860724E-024
   2.5125000000000001E-002     5.3073510150234491E-024
   2.5500000000000002E-002     2.1696402814986179E-023
   2.5875000000000002E-002     8.1155054172028395E-023
   2.6250000000000002E-002     3.0439489671314076E-022
   2.6625000000000003E-002     1.1173951818144989E-021
   2.7000000000000003E-002     4.0278438942047797E-021
   2.7375000000000003E-002     1.4258033513512808E-020
   2.7750000000000004E-002     4.9552698932773341E-020
   2.8125000000000004E-002     1.6909108017849676E-019
   2.8500000000000004E-002     5.6650710567021587E-019
   2.8875000000000005E-002     1.8634453425695993E-018
   2.9250000000000005E-002     6.0178906584177968E-018
   2.9625000000000005E-002     1.9080475488364127E-017
   3.0000000000000006E-002     5.9392459339803187E-017
   3.0375000000000006E-002     1.8149815516087472E-016
   3.0750000000000000E-002     5.4449924896102020E-016
   3.1125000000000000E-002     1.6036154103485166E-015
   3.1500000000000000E-002     4.6362668235577750E-015
   3.1875000000000001E-002     1.3158110669260397E-014
   3.2250000000000001E-002     3.6657570248304939E-014
   3.2625000000000001E-002     1.0024618032653539E-013
   3.3000000000000002E-002     2.6908680656785984E-013
   3.3375000000000002E-002     7.0896112189818426E-013
   3.3750000000000002E-002     1.8333675191114964E-012
   3.4125000000000003E-002     4.6532405413304965E-012
   3.4500000000000003E-002     1.1591048091713490E-011
   3.4875000000000003E-002     2.8335947583017991E-011
   3.5250000000000004E-002     6.7980311203996645E-011
   3.5625000000000004E-002     1.6004255898816990E-010
   3.6000000000000004E-002     3.6972340985154278E-010
   3.6375000000000005E-002     8.3808836245742547E-010
   3.6750000000000005E-002     1.8639780583757854E-009
   3.7125000000000005E-002     4.0674353142535155E-009
   3.7500000000000006E-002     8.7073230006123173E-009
   3.7875000000000006E-002     1.8285998451157387E-008
   3.8250000000000006E-002     3.7668849647865272E-008
   3.8625000000000007E-002     7.6111246698720315E-008
   3.9000000000000000E-002     1.5082620506109512E-007
   3.9375000000000000E-002     2.9310847919692579E-007
   3.9750000000000001E-002     5.5855272863926644E-007
   4.0125000000000001E-002     1.0435917389602071E-006
   4.0500000000000001E-002     1.9115602033572186E-006
   4.0875000000000002E-002     3.4321603330551291E-006
   4.1250000000000002E-002     6.0397704165568678E-006
   4.1625000000000002E-002     1.0415320259587023E-005
   4.2000000000000003E-002     1.7597395245576496E-005
   4.2375000000000003E-002     2.9125669271346395E-005
   4.2750000000000003E-002     4.7212086719332583E-005
   4.3125000000000004E-002     7.4934700326086115E-005
   4.3500000000000004E-002     1.1642702055210771E-004
   4.3875000000000004E-002     1.7702512961158528E-004
   4.4250000000000005E-002     2.6331556496642929E-004
   4.4625000000000005E-002     3.8302710708163802E-004
   4.5000000000000005E-002     5.4460441525128688E-004
   4.5375000000000006E-002     7.5657220737875366E-004
   4.5750000000000006E-002     1.0262392824086388E-003
   4.6125000000000006E-002     1.3583386562414309E-003
   4.6500000000000007E-002     1.7530056635559406E-003
   4.6875000000000007E-002     2.2037417470063977E-003
   4.7250000000000000E-002     2.6956017120670782E-003
   4.7625000000000001E-002     3.2038016607164720E-003
   4.8000000000000001E-002     3.6939053877670901E-003
   4.8375000000000001E-002     4.1225033946336153E-003
   4.8750000000000002E-002     4.4415764620800904E-003
   4.9125000000000002E-002     4.6033373187870158E-003
   4.9500000000000002E-002     4.5673325536688732E-003
   4.9875000000000003E-002     4.3089308297460816E-003
   5.0250000000000003E-002     3.8261743017369964E-003
   5.0625000000000003E-002     3.1466515324075420E-003
   5.1000000000000004E-002     2.3263065245650132E-003
   5.1375000000000004E-002     1.4501612872322900E-003
   5.1750000000000004E-002     6.1797335643616841E-004
   5.2125000000000005E-002    -6.5628335694487564E-005
   5.2500000000000005E-002    -5.1581259735586533E-004
   5.2875000000000005E-002    -6.8298297975497794E-004
   5.3250000000000006E-002    -5.7333852415927344E-004
   5.3625000000000006E-002    -2.5868856495404316E-004
   5.4000000000000006E-002     1.2102324610495111E-004
   5.4375000000000007E-002     3.7050824301115593E-004
   5.4750000000000007E-002     2.5730296657567919E-004
   5.5125000000000007E-002    -4.4830824002362252E-004
   5.5500000000000008E-002    -1.9418407652880233E-003
   5.5875000000000008E-002    -4.3483623800718201E-003
   5.6250000000000008E-002    -7.6812888601731598E-003
   5.6625000000000009E-002    -1.1839110045472900E-002
   5.7000000000000009E-002    -1.6594628383491704E-002
   5.7375000000000009E-002    -2.1615338062855833E-002
   5.7750000000000010E-002    -2.6497517326760110E-002
   5.8125000000000010E-002    -3.0808592705965920E-002
   5.8500000000000010E-002    -3.4135946668309360E-002
   5.8875000000000011E-002    -3.6137658288999543E-002
   5.9250000000000011E-002    -3.6574968325413640E-002
   5.9624999999999997E-002    -3.5336111149513821E-002
   5.9999999999999998E-002    -3.2440995886988157E-002
   6.0374999999999998E-002    -2.8032264663228234E-002
   6.0749999999999998E-002    -2.2347025014589579E-002
   6.1124999999999999E-002    -1.5689190116571550E-002
   6.1499999999999999E-002    -8.3835575315797418E-003
   6.1874999999999999E-002    -7.5965488194543532E-004
   6.2250000000000000E-002     6.8891262109133586E-003
   6.2625000000000000E-002     1.4312330553837401E-002
   6.3000000000000000E-002     2.1296914077966508E-002
   6.3375000000000001E-002     2.7688774379542598E-002
   6.3750000000000001E-002     3.3340829198459002E-002
   6.4125000000000001E-002     3.8134732477838960E-002
   6.4500000000000002E-002     4.1948950926342675E-002
   6.4875000000000002E-002     4.4650064394293171E-002
   6.5250000000000002E-002     4.6100161740211032E-002
   6.5625000000000003E-002     4.6162217047216673E-002
   6.6000000000000003E-002     4.4718092287393388E-002
   6.6375000000000003E-002     4.1687325709240074E-002
   6.6750000000000004E-002     3.7076410222465717E-002
   6.7125000000000004E-002     3.0970164851881157E-002
   6.7500000000000004E-002     2.3598230355637843E-002
   6.7875000000000005E-002     1.5299707187631705E-002
   6.8250000000000005E-002     6.5547136099435030E-003
   6.8625000000000005E-002    -2.0706324775950063E-003
   6.9000000000000006E-002    -9.9455753570870456E-003
   6.9375000000000006E-002    -1.6434257438020801E-002
   6.9750000000000006E-002    -2.0993843409222730E-002
   7.0125000000000007E-002    -2.3186234011818269E-002
   7.0500000000000007E-002    -2.2800544041622441E-002
   7.0875000000000007E-002    -1.9848743511076704E-002
   7.1250000000000008E-002    -1.4601769441312057E-002
   7.1625000000000008E-002    -7.5820073218229381E-003
   7.2000000000000008E-002     4.9472170154854262E-004
   7.2375000000000009E-002     8.7853534492406942E-003
   7.2750000000000009E-002     1.6396524745995757E-002
   7.3125000000000009E-002     2.2496176787417103E-002
   7.3500000000000010E-002     2.6397144403605830E-002
   7.3875000000000010E-002     2.7633120667111207E-002
   7.4250000000000010E-002     2.6025488019985457E-002
   7.4625000000000011E-002     2.1679203572496388E-002
   7.5000000000000011E-002     1.4998705422762718E-002
   7.5375000000000011E-002     6.6454591908584864E-003
   7.5750000000000012E-002    -2.5557650688402267E-003
   7.6124999999999998E-002    -1.1658336796118407E-002
   7.6499999999999999E-002    -1.9731471513844114E-002
   7.6874999999999999E-002    -2.5920346800457086E-002
   7.7249999999999999E-002    -2.9559067764834995E-002
   7.7625000000000000E-002    -3.0211815487945368E-002
   7.8000000000000000E-002    -2.7750804377278622E-002
   7.8375000000000000E-002    -2.2345259149382325E-002
   7.8750000000000001E-002    -1.4449800160402905E-002
   7.9125000000000001E-002    -4.7866216246513459E-003
   7.9500000000000001E-002     5.7714567198571022E-003
   7.9875000000000002E-002     1.6230671437340589E-002
   8.0250000000000002E-002     2.5626278408905835E-002
   8.0625000000000002E-002     3.3087059894484128E-002
   8.1000000000000003E-002     3.7921404413582112E-002
   8.1375000000000003E-002     3.9693249045004778E-002
   8.1750000000000003E-002     3.8239182630886145E-002
   8.2125000000000004E-002     3.3693515905126897E-002
   8.2500000000000004E-002     2.6455240114596143E-002
   8.2875000000000004E-002     1.7133767587195994E-002
   8.3250000000000005E-002     6.5028117887424601E-003
   8.3625000000000005E-002    -4.5996941487805049E-003
   8.4000000000000005E-002    -1.5338583057785442E-002
   8.4375000000000006E-002    -2.4967037124472173E-002
   8.4750000000000006E-002    -3.2897631335204770E-002
   8.5125000000000006E-002    -3.8771005232517447E-002
   8.5500000000000007E-002    -4.2458159753943542E-002
   8.5875000000000007E-002    -4.4115743908140465E-002
   8.6250000000000007E-002    -4.4148182231047564E-002
   8.6625000000000008E-002    -4.3165579433169059E-002
   8.7000000000000008E-002    -4.1918395137838113E-002
   8.7375000000000008E-002    -4.1179128119467126E-002
   8.7750000000000009E-002    -4.1692591576327737E-002
   8.8125000000000009E-002    -4.3968274703554862E-002
   8.8500000000000009E-002    -4.8289584524581694E-002
   8.8875000000000010E-002    -5.4571634499601139E-002
   8.9250000000000010E-002    -6.2360092345075696E-002
   8.9625000000000010E-002    -7.0900258508301284E-002
   9.0000000000000011E-002    -7.9126361286803934E-002
   9.0375000000000011E-002    -8.5874451854063005E-002
   9.0750000000000011E-002    -8.9947508430422832E-002
   9.1125000000000012E-002    -9.0310497933539124E-002
   9.1500000000000012E-002    -8.6172063741654509E-002
   9.1875000000000012E-002    -7.7131169040132674E-002
   9.2250000000000013E-002    -6.3131416481277250E-002
   9.2624999999999999E-002    -4.4552899274696314E-002
   9.2999999999999999E-002    -2.2088801420253559E-002
   9.3375000000000000E-002     3.3394495395955969E-003
   9.3750000000000000E-002     3.0608798188658456E-002
   9.4125000000000000E-002     5.8581903042047800E-002
   9.4500000000000001E-002     8.6058858699405327E-002
   9.4875000000000001E-002    0.11195566613721902     
   9.5250000000000001E-002    0.13519161372496430     
   9.5625000000000002E-002    0.15480026895390611     
   9.6000000000000002E-002    0.16986684754554918     
   9.6375000000000002E-002    0.17955912068345581     
   9.6750000000000003E-002    0.18320576757167395     
   9.7125000000000003E-002    0.18026295836382047     
   9.7500000000000003E-002    0.17046925389675305     
   9.7875000000000004E-002    0.15387169674267381     
   9.8250000000000004E-002    0.13089666603359032     
   9.8625000000000004E-002    0.10240168576063913     
   9.9000000000000005E-002     6.9600336572169907E-002
   9.9375000000000005E-002     3.4086801880595714E-002
   9.9750000000000005E-002    -2.3452813559480066E-003
  0.10012500000000001         -3.7785542366612544E-002
  0.10050000000000001         -7.0411304520923979E-002
  0.10087500000000001         -9.8557125524637856E-002
  0.10125000000000001        -0.12095652410181273     
  0.10162500000000001        -0.13667634920532337     
  0.10200000000000001        -0.14526893921853776     
  0.10237500000000001        -0.14674974470062840     
  0.10275000000000001        -0.14144447835309723     
  0.10312500000000001        -0.13009785800521231     
  0.10350000000000001        -0.11359816697769892     
  0.10387500000000001         -9.3042633582118783E-002
  0.10425000000000001         -6.9555328105538536E-002
  0.10462500000000001         -4.4275903705164453E-002
  0.10500000000000001         -1.8299157491331246E-002
  0.10537500000000001          7.3505522009137212E-003
  0.10575000000000001          3.1753624227588421E-002
  0.10612500000000001          5.4071375144295310E-002
  0.10650000000000001          7.3549355526714516E-002
  0.10687500000000001          8.9550375819512071E-002
  0.10725000000000001         0.10147378246242575     
  0.10762500000000001         0.10886813110531333     
  0.10800000000000001         0.11131744842343556     
  0.10837500000000001         0.10858108711977799     
  0.10875000000000001         0.10056440835418093     
  0.10912500000000000          8.7362013354709292E-002
  0.10950000000000000          6.9365332552915715E-002
  0.10987500000000000          4.7167616068385730E-002
  0.11025000000000000          2.1749504109516982E-002
  0.11062500000000001         -5.6953417730454241E-003
  0.11100000000000000         -3.3721742624840498E-002
  0.11137500000000002         -6.0735533812565273E-002
  0.11175000000000000         -8.5131344081304336E-002
  0.11212500000000002        -0.10538500118739078     
  0.11250000000000000        -0.12021448618443797     
  0.11287500000000002        -0.12866009062635003     
  0.11325000000000000        -0.13020846604698949     
  0.11362500000000002        -0.12471491807616425     
  0.11400000000000000        -0.11256777925961722     
  0.11437500000000002         -9.4427722543247300E-002
  0.11475000000000000         -7.1348912591633604E-002
  0.11512500000000002         -4.4552699215842755E-002
  0.11550000000000001         -1.5410506330690715E-002
  0.11587500000000002          1.4615280252657121E-002
  0.11625000000000001          4.4086389210373778E-002
  0.11662500000000002          7.1508947685468505E-002
  0.11700000000000001          9.5528519287914948E-002
  0.11737499999999999         0.11477232765010868     
  0.11775000000000001         0.12807598458694314     
  0.11812499999999999         0.13440475932485293     
  0.11850000000000001         0.13305348722501203     
  0.11887499999999999         0.12364276355186993     
  0.11925000000000001         0.10627490338702700     
  0.11962500000000000          8.1594472268668713E-002
  0.12000000000000001          5.0749625444082395E-002
  0.12037500000000000          1.5508767802936179E-002
  0.12075000000000001         -2.1965822229082013E-002
  0.12112500000000000         -5.9137287463704634E-002
  0.12150000000000001         -9.3365075681110993E-002
  0.12187500000000000        -0.12205585422903734     
  0.12225000000000001        -0.14295986989765699     
  0.12262500000000000        -0.15438982448640093     
  0.12300000000000001        -0.15532943818961870     
  0.12337500000000000        -0.14573098571272641     
  0.12375000000000001        -0.12635186946242055     
  0.12412500000000000         -9.8873134926009659E-002
  0.12450000000000001         -6.5670441152789416E-002
  0.12487500000000000         -2.9588859454922734E-002
  0.12525000000000003          6.3286198365790462E-003
  0.12562499999999999          3.9181145093324737E-002
  0.12600000000000000          6.6471555771780461E-002
  0.12637500000000002          8.6472422023530726E-002
  0.12675000000000003          9.8204888785441202E-002
  0.12712499999999999         0.10170665505058207     
  0.12750000000000000          9.7778828020846018E-002
  0.12787500000000002          8.7938494987557556E-002
  0.12825000000000003          7.4100628714921526E-002
  0.12862499999999999          5.8302943435676602E-002
  0.12900000000000000          4.2471468960622594E-002
  0.12937500000000002          2.8062986467153647E-002
  0.12975000000000003          1.6097335054166714E-002
  0.13012499999999999          6.9099054570939261E-003
  0.13050000000000000          3.9212227046346343E-004
  0.13087500000000002         -4.0314356858941565E-003
  0.13125000000000003         -7.0917587308525305E-003
  0.13162499999999999         -9.5283388832180828E-003
  0.13200000000000001         -1.1906438317213873E-002
  0.13237500000000002         -1.4405950498766782E-002
  0.13275000000000003         -1.6910576118582685E-002
  0.13312499999999999         -1.8878805814950279E-002
  0.13350000000000001         -1.9632941693138450E-002
  0.13387500000000002         -1.8382435079782537E-002
  0.13424999999999998         -1.4580377913003716E-002
  0.13462499999999999         -8.0263611826683727E-003
  0.13500000000000001          9.6381863855793306E-004
  0.13537500000000002          1.1424934908421957E-002
  0.13574999999999998          2.1968907719890306E-002
  0.13612500000000000          3.0774712150501732E-002
  0.13650000000000001          3.5983063430798184E-002
  0.13687500000000002          3.6024424767651046E-002
  0.13724999999999998          2.9914933059804610E-002
  0.13762500000000000          1.7580632101009713E-002
  0.13800000000000001         -2.3592346671161193E-005
  0.13837500000000003         -2.0890035284598974E-002
  0.13874999999999998         -4.2236013975254422E-002
  0.13912500000000000         -6.0754753323252669E-002
  0.13950000000000001         -7.3253545655057581E-002
  0.13987500000000003         -7.7072788899581912E-002
  0.14024999999999999         -7.0614438271803637E-002
  0.14062500000000000         -5.3685725570956661E-002
  0.14100000000000001         -2.7626283768324073E-002
  0.14137500000000003          4.7487815584513690E-003
  0.14174999999999999          3.9558958943186319E-002
  0.14212500000000000          7.2255345202163312E-002
  0.14250000000000002          9.8342610446747636E-002
  0.14287500000000003         0.11398426067296097     
  0.14324999999999999         0.11645637352888100     
  0.14362500000000000         0.10474696136021652     
  0.14400000000000002          7.9483920765368449E-002
  0.14437500000000003          4.3003371146440789E-002
  0.14474999999999999         -9.8942350049184384E-004
  0.14512500000000000         -4.7881675002022873E-002
  0.14550000000000002         -9.2800672520996386E-002
  0.14587500000000003        -0.13105270929550311     
  0.14624999999999999        -0.15889583358784221     
  0.14662500000000001        -0.17371281972429620     
  0.14700000000000002        -0.17435860254096586     
  0.14737500000000003        -0.16120368241098898     
  0.14774999999999999        -0.13588588826606079     
  0.14812500000000001        -0.10111569045187604     
  0.14850000000000002         -6.0182034673292889E-002
  0.14887500000000004         -1.6579285348391388E-002
  0.14924999999999999          2.6387702866104437E-002
  0.14962500000000001          6.5896858365382643E-002
  0.15000000000000002          9.9805506324499055E-002
  0.15037499999999998         0.12671867965117711     
  0.15075000000000000         0.14581584184578741     
  0.15112500000000001         0.15689222491232047     
  0.15150000000000002         0.16001521592200113     
  0.15187499999999998         0.15546653779201214     
  0.15225000000000000         0.14365224756319478     
  0.15262500000000001         0.12502855935265861     
  0.15300000000000002         0.10019834694458749     
  0.15337499999999998          7.0012176610238591E-002
  0.15375000000000000          3.5720452728558401E-002
  0.15412500000000001         -1.0215943971342307E-003
  0.15450000000000003         -3.8028685241449041E-002
  0.15487499999999998         -7.2734204811910494E-002
  0.15525000000000000        -0.10242864757000462     
  0.15562500000000001        -0.12443802680029159     
  0.15600000000000003        -0.13662910834661887     
  0.15637499999999999        -0.13758542291972370     
  0.15675000000000000        -0.12700512363772157     
  0.15712500000000001        -0.10572970971761338     
  0.15750000000000003         -7.5832472537558607E-002
  0.15787499999999999         -4.0304962510520903E-002
  0.15825000000000000         -2.7676663927452281E-003
  0.15862500000000002          3.2917450093316508E-002
  0.15900000000000003          6.3323697096829751E-002
  0.15937499999999999          8.5630104095761161E-002
  0.15975000000000000          9.8166967458550886E-002
  0.16012500000000002         0.10053973417582913     
  0.16050000000000003          9.3507616217884670E-002
  0.16087499999999999          7.8978256284476675E-002
  0.16125000000000000          5.9528908895998711E-002
  0.16162500000000002          3.8131142407395326E-002
  0.16200000000000003          1.7613616925450618E-002
  0.16237499999999999          3.8910816191758740E-004
  0.16275000000000001         -1.1930932240454170E-002
  0.16312500000000002         -1.8583375326910179E-002
  0.16350000000000003         -1.9681831250597831E-002
  0.16387499999999999         -1.6121391340621360E-002
  0.16425000000000001         -9.2849690165633207E-003
  0.16462500000000002         -8.1133940172854486E-004
  0.16500000000000004          7.6852026036699321E-003
  0.16537499999999999          1.4783369003336081E-002
  0.16575000000000001          1.9400237047434210E-002
  0.16612500000000002          2.0810309493975596E-002
  0.16650000000000004          1.8554545541890698E-002
  0.16687500000000000          1.2405154509250692E-002
  0.16725000000000001          2.2377706399412372E-003
  0.16762500000000002         -1.1959678792032585E-002
  0.16799999999999998         -3.0085379757396009E-002
  0.16837500000000000         -5.1774347886330278E-002
  0.16875000000000001         -7.6289108316262122E-002
  0.16912500000000003        -0.10235325509150930     
  0.16949999999999998        -0.12809319398462035     
  0.16987500000000000        -0.15111946090410527     
  0.17025000000000001        -0.16862603624861450     
  0.17062500000000003        -0.17786772984881283     
  0.17099999999999999        -0.17640214203913768     
  0.17137500000000000        -0.16265591737426568     
  0.17175000000000001        -0.13628044762088540     
  0.17212500000000003         -9.8214608911344856E-002
  0.17249999999999999         -5.0972456562063499E-002
  0.17287500000000000          1.8954543324537967E-003
  0.17325000000000002          5.5999012070962806E-002
  0.17362500000000003         0.10678493872600894     
  0.17399999999999999         0.15012836836398052     
  0.17437500000000000         0.18287262983687935     
  0.17475000000000002         0.20323725885843813     
  0.17512500000000003         0.21094279667374069     
  0.17549999999999999         0.20728252076387083     
  0.17587500000000000         0.19461314262028509     
  0.17625000000000002         0.17616226856135195     
  0.17662500000000003         0.15531593434124322     
  0.17699999999999999         0.13521257599409708     
  0.17737500000000000         0.11835139620101054     
  0.17775000000000002         0.10617521215908221     
  0.17812500000000003          9.9208387804115380E-002
  0.17849999999999999          9.6803058756263424E-002
  0.17887500000000001          9.7577844365288546E-002
  0.17925000000000002          9.9376189534165410E-002
  0.17962500000000003          9.9726655300925685E-002
  0.17999999999999999          9.5931796323373592E-002
  0.18037500000000001          8.5410487101899316E-002
  0.18075000000000002          6.5800929445171213E-002
  0.18112500000000004          3.5274282694104583E-002
  0.18149999999999999         -7.2808897448102955E-003
  0.18187500000000001         -6.2048852929049061E-002
  0.18225000000000002        -0.12805380537300631     
  0.18262500000000004        -0.20297507819096144     
  0.18300000000000000        -0.28316455187275474     
  0.18337500000000001        -0.36364404357807706     
  0.18375000000000002        -0.43844291514771699     
  0.18412499999999998        -0.50111011107943149     
  0.18450000000000000        -0.54521749613320825     
  0.18487500000000001        -0.56519914790806292     
  0.18525000000000003        -0.55695145739610563     
  0.18562499999999998        -0.51849506556442415     
  0.18600000000000000        -0.45031898747727250     
  0.18637500000000001        -0.35540416263232555     
  0.18675000000000003        -0.23911085066257143     
  0.18712499999999999        -0.10849907438717515     
  0.18750000000000000          2.8277496202641736E-002
  0.18787500000000001         0.16296987130054341     
  0.18825000000000003         0.28803531692809858     
  0.18862499999999999         0.39735677046445411     
  0.18900000000000000         0.48673935805110502     