  -1.4999999999999999E-002     0.0000000000000000     
  -1.4624999999999999E-002     0.0000000000000000     
  -1.4249999999999999E-002     0.0000000000000000     
  -1.3874999999999998E-002     0.0000000000000000     
  -1.3500000000000000E-002     0.0000000000000000     
  -1.3125000000000000E-002     0.0000000000000000     
  -1.2749999999999999E-002     0.0000000000000000     
  -1.2374999999999999E-002     0.0000000000000000     
  -1.2000000000000000E-002     0.0000000000000000     
  -1.1625000000000000E-002     0.0000000000000000     
  -1.1250000000000000E-002     0.0000000000000000     
  -1.0874999999999999E-002     0.0000000000000000     
  -1.0499999999999999E-002     0.0000000000000000     
  -1.0124999999999999E-002     0.0000000000000000     
  -9.7499999999999983E-003     0.0000000000000000     
  -9.3749999999999979E-003     0.0000000000000000     
  -8.9999999999999993E-003     0.0000000000000000     
  -8.6249999999999990E-003     0.0000000000000000     
  -8.2500000000000004E-003     0.0000000000000000     
  -7.8750000000000001E-003     0.0000000000000000     
  -7.4999999999999989E-003     0.0000000000000000     
  -7.1249999999999994E-003     0.0000000000000000     
  -6.7499999999999991E-003     0.0000000000000000     
  -6.3749999999999987E-003     0.0000000000000000     
  -5.9999999999999984E-003     0.0000000000000000     
  -5.6249999999999998E-003     0.0000000000000000     
  -5.2499999999999995E-003     0.0000000000000000     
  -4.8749999999999991E-003     0.0000000000000000     
  -4.4999999999999988E-003     0.0000000000000000     
  -4.1249999999999985E-003     0.0000000000000000     
  -3.7499999999999981E-003     0.0000000000000000     
  -3.3749999999999995E-003     0.0000000000000000     
  -2.9999999999999992E-003     0.0000000000000000     
  -2.6249999999999989E-003     0.0000000000000000     
  -2.2499999999999985E-003     0.0000000000000000     
  -1.8749999999999982E-003     0.0000000000000000     
  -1.4999999999999996E-003     0.0000000000000000     
  -1.1249999999999993E-003     0.0000000000000000     
  -7.4999999999999893E-004     0.0000000000000000     
  -3.7499999999999860E-004     0.0000000000000000     
   1.7347234759768071E-018     0.0000000000000000     
   3.7500000000000207E-004     0.0000000000000000     
   7.5000000000000067E-004     0.0000000000000000     
   1.1250000000000010E-003     0.0000000000000000     
   1.5000000000000013E-003     0.0000000000000000     
   1.8750000000000017E-003     0.0000000000000000     
   2.2500000000000020E-003     0.0000000000000000     
   2.6250000000000023E-003     0.0000000000000000     
   3.0000000000000027E-003     0.0000000000000000     
   3.3750000000000030E-003     0.0000000000000000     
   3.7499999999999999E-003     0.0000000000000000     
   4.1250000000000002E-003     0.0000000000000000     
   4.5000000000000005E-003     0.0000000000000000     
   4.8750000000000009E-003     0.0000000000000000     
   5.2500000000000012E-003     0.0000000000000000     
   5.6250000000000015E-003     0.0000000000000000     
   6.0000000000000019E-003     0.0000000000000000     
   6.3750000000000022E-003     0.0000000000000000     
   6.7500000000000025E-003     0.0000000000000000     
   7.1250000000000029E-003     0.0000000000000000     
   7.5000000000000032E-003     0.0000000000000000     
   7.8750000000000001E-003     0.0000000000000000     
   8.2500000000000004E-003     0.0000000000000000     
   8.6250000000000007E-003     0.0000000000000000     
   9.0000000000000011E-003     0.0000000000000000     
   9.3750000000000014E-003     0.0000000000000000     
   9.7500000000000017E-003     0.0000000000000000     
   1.0125000000000002E-002     0.0000000000000000     
   1.0500000000000002E-002     0.0000000000000000     
   1.0875000000000003E-002     0.0000000000000000     
   1.1250000000000003E-002     0.0000000000000000     
   1.1625000000000003E-002     0.0000000000000000     
   1.2000000000000000E-002     0.0000000000000000     
   1.2375000000000001E-002     0.0000000000000000     
   1.2750000000000001E-002     0.0000000000000000     
   1.3125000000000001E-002     0.0000000000000000     
   1.3500000000000002E-002     0.0000000000000000     
   1.3875000000000002E-002     0.0000000000000000     
   1.4250000000000002E-002     0.0000000000000000     
   1.4625000000000003E-002     0.0000000000000000     
   1.5000000000000003E-002     0.0000000000000000     
   1.5375000000000003E-002     0.0000000000000000     
   1.5750000000000004E-002     0.0000000000000000     
   1.6125000000000000E-002     0.0000000000000000     
   1.6500000000000001E-002     0.0000000000000000     
   1.6875000000000001E-002     0.0000000000000000     
   1.7250000000000001E-002     0.0000000000000000     
   1.7625000000000002E-002     0.0000000000000000     
   1.8000000000000002E-002     0.0000000000000000     
   1.8375000000000002E-002     0.0000000000000000     
   1.8750000000000003E-002     0.0000000000000000     
   1.9125000000000003E-002     0.0000000000000000     
   1.9500000000000003E-002     2.4058971442678061E-052
   1.9875000000000004E-002    -8.5843223485609291E-050
   2.0250000000000004E-002    -8.1039835726815253E-037
   2.0625000000000004E-002     5.9742920291819332E-035
   2.1000000000000005E-002     4.3947982469699055E-034
   2.1375000000000005E-002     2.1514215833100109E-033
   2.1750000000000005E-002    -7.1746762982841371E-032
   2.2125000000000006E-002    -2.9370983029114894E-031
   2.2499999999999999E-002     2.6582129908368591E-030
   2.2875000000000000E-002     4.8063155818671956E-030
   2.3250000000000000E-002    -9.0112368848330549E-029
   2.3625000000000000E-002     3.1729930666969659E-028
   2.4000000000000000E-002    -2.4297708652002736E-029
   2.4375000000000001E-002    -4.8723888583510639E-027
   2.4750000000000001E-002     2.8046018499190928E-026
   2.5125000000000001E-002    -1.1321986122951028E-025
   2.5500000000000002E-002     5.2141565600162737E-025
   2.5875000000000002E-002     2.1284761716757288E-024
   2.6250000000000002E-002     8.3231290350883282E-024
   2.6625000000000003E-002     3.1287496833599602E-023
   2.7000000000000003E-002     1.1896842218071806E-022
   2.7375000000000003E-002     4.4127123658420236E-022
   2.7750000000000004E-002     1.6097607087059382E-021
   2.8125000000000004E-002     5.7640858952031021E-021
   2.8500000000000004E-002     2.0266211369265292E-020
   2.8875000000000005E-002     6.9962421110682798E-020
   2.9250000000000005E-002     2.3713436225120403E-019
   2.9625000000000005E-002     7.8914726306669256E-019
   3.0000000000000006E-002     2.5783974874407078E-018
   3.0375000000000006E-002     8.2710094018977980E-018
   3.0750000000000000E-002     2.6048509666646532E-017
   3.1125000000000000E-002     8.0539569679791598E-017
   3.1500000000000000E-002     2.4447321240677880E-016
   3.1875000000000001E-002     7.2851685049976875E-016
   3.2250000000000001E-002     2.1312094243169319E-015
   3.2625000000000001E-002     6.1204128966183314E-015
   3.3000000000000002E-002     1.7254047075247005E-014
   3.3375000000000002E-002     4.7747029147395237E-014
   3.3750000000000002E-002     1.2969896140801499E-013
   3.4125000000000003E-002     3.4581824517971351E-013
   3.4500000000000003E-002     9.0503657342054607E-013
   3.4875000000000003E-002     2.3247738693962866E-012
   3.5250000000000004E-002     5.8610056586713071E-012
   3.5625000000000004E-002     1.4502010491901518E-011
   3.6000000000000004E-002     3.5215468306092715E-011
   3.6375000000000005E-002     8.3919644278401601E-011
   3.6750000000000005E-002     1.9624802284404758E-010
   3.7125000000000005E-002     4.5033530293706903E-010
   3.7500000000000006E-002     1.0139935384749724E-009
   3.7875000000000006E-002     2.2401536403481662E-009
   3.8250000000000006E-002     4.8555611045187335E-009
   3.8625000000000007E-002     1.0325090835263276E-008
   3.9000000000000000E-002     2.1538209414698193E-008
   3.9375000000000000E-002     4.4071591737395151E-008
   3.9750000000000001E-002     8.8452003740249675E-008
   4.0125000000000001E-002     1.7410751376595865E-007
   4.0500000000000001E-002     3.3608195759433251E-007
   4.0875000000000002E-002     6.3614972567589841E-007
   4.1250000000000002E-002     1.1805935827305729E-006
   4.1625000000000002E-002     2.1479484721007350E-006
   4.2000000000000003E-002     3.8306622015669886E-006
   4.2375000000000003E-002     6.6955493616523597E-006
   4.2750000000000003E-002     1.1468199081218754E-005
   4.3125000000000004E-002     1.9245170787405590E-005
   4.3500000000000004E-002     3.1636558495154854E-005
   4.3875000000000004E-002     5.0933469093563508E-005
   4.4250000000000005E-002     8.0289800624781360E-005
   4.4625000000000005E-002     1.2389131104874378E-004
   4.5000000000000005E-002     1.8707884926930912E-004
   4.5375000000000006E-002     2.7634591329029582E-004
   4.5750000000000006E-002     3.9918296860049342E-004
   4.6125000000000006E-002     5.6361725185196266E-004
   4.6500000000000007E-002     7.7743731785482489E-004
   4.6875000000000007E-002     1.0470835433536872E-003
   4.7250000000000000E-002     1.3759690240161522E-003
   4.7625000000000001E-002     1.7628643780659263E-003
   4.8000000000000001E-002     2.1998980500335650E-003
   4.8375000000000001E-002     2.6708990212916455E-003
   4.8750000000000002E-002     3.1505463516331555E-003
   4.9125000000000002E-002     3.6045941480526925E-003
   4.9500000000000002E-002     3.9917323546101897E-003
   4.9875000000000003E-002     4.2667596836912609E-003
   5.0250000000000003E-002     4.3871086625913748E-003
   5.0625000000000003E-002     4.3186237313606003E-003
   5.1000000000000004E-002     4.0431586235012071E-003
   5.1375000000000004E-002     3.5663786712563646E-003
   5.1750000000000004E-002     2.9193114280033341E-003
   5.2125000000000005E-002     2.1612249430615839E-003
   5.2500000000000005E-002     1.3742896920815363E-003
   5.2875000000000005E-002     6.5133822838070628E-004
   5.3250000000000006E-002     8.4089489266392850E-005
   5.3625000000000006E-002    -2.5711190195432077E-004
   5.4000000000000006E-002    -3.4175050458809151E-004
   5.4375000000000007E-002    -1.9084564889719185E-004
   5.4750000000000007E-002     1.1034584617411771E-004
   5.5125000000000007E-002     4.1788011244577370E-004
   5.5500000000000008E-002     5.4106006331872700E-004
   5.5875000000000008E-002     2.6531800307340292E-004
   5.6250000000000008E-002    -6.1722662683312026E-004
   5.6625000000000009E-002    -2.2682472219571629E-003
   5.7000000000000009E-002    -4.7777818689107594E-003
   5.7375000000000009E-002    -8.1298032284743606E-003
   5.7750000000000010E-002    -1.2200700596890060E-002
   5.8125000000000010E-002    -1.6751105037099114E-002
   5.8500000000000010E-002    -2.1459542289214727E-002
   5.8875000000000011E-002    -2.5940259614957502E-002
   5.9250000000000011E-002    -2.9800679331730143E-002
   5.9624999999999997E-002    -3.2672644304211504E-002
   5.9999999999999998E-002    -3.4264401834456427E-002
   6.0374999999999998E-002    -3.4383877221667081E-002
   6.0749999999999998E-002    -3.2953997998141485E-002
   6.1124999999999999E-002    -3.0021684483270784E-002
   6.1499999999999999E-002    -2.5735150207760654E-002
   6.1874999999999999E-002    -2.0321010585298612E-002
   6.2250000000000000E-002    -1.4059908818363434E-002
   6.2625000000000000E-002    -7.2453262451358845E-003
   6.3000000000000000E-002    -1.5880211832645859E-004
   6.3375000000000001E-002     6.9381317406223501E-003
   6.3750000000000001E-002     1.3840064466387835E-002
   6.4125000000000001E-002     2.0369216774415121E-002
   6.4500000000000002E-002     2.6385149274409565E-002
   6.4875000000000002E-002     3.1773984854536377E-002
   6.5250000000000002E-002     3.6414974063039611E-002
   6.5625000000000003E-002     4.0197826096011115E-002
   6.6000000000000003E-002     4.2987086375029987E-002
   6.6375000000000003E-002     4.4639437105682502E-002
   6.6750000000000004E-002     4.5010857843845807E-002
   6.7125000000000004E-002     4.3969168890333546E-002
   6.7500000000000004E-002     4.1414518527235294E-002
   6.7875000000000005E-002     3.7323273719575299E-002
   6.8250000000000005E-002     3.1747326078817473E-002
   6.8625000000000005E-002     2.4863181550984392E-002
   6.9000000000000006E-002     1.6957173568291357E-002
   6.9375000000000006E-002     8.4381323626181309E-003
   6.9750000000000006E-002    -1.8480857579652023E-004
   7.0125000000000007E-002    -8.3594985700857320E-003
   7.0500000000000007E-002    -1.5494819281509885E-002
   7.0875000000000007E-002    -2.1086509966039932E-002
   7.1250000000000008E-002    -2.4705799247136923E-002
   7.1625000000000008E-002    -2.6109381251910750E-002
   7.2000000000000008E-002    -2.5244116167381873E-002
   7.2375000000000009E-002    -2.2266001485661137E-002
   7.2750000000000009E-002    -1.7542492459952822E-002
   7.3125000000000009E-002    -1.1600625007571350E-002
   7.3500000000000010E-002    -5.0700609944492343E-003
   7.3875000000000010E-002     1.3655034816318346E-003
   7.4250000000000010E-002     7.0714283658585156E-003
   7.4625000000000011E-002     1.1514555415195098E-002
   7.5000000000000011E-002     1.4314624635734531E-002
   7.5375000000000011E-002     1.5274007443963976E-002
   7.5750000000000012E-002     1.4411457840666742E-002
   7.6124999999999998E-002     1.1918798195990373E-002
   7.6499999999999999E-002     8.1567643286137113E-003
   7.6874999999999999E-002     3.5985529442026497E-003
   7.7249999999999999E-002    -1.2018266854327713E-003
   7.7625000000000000E-002    -5.6803690231564709E-003
   7.8000000000000000E-002    -9.2925620411237787E-003
   7.8375000000000000E-002    -1.1569042081557193E-002
   7.8750000000000001E-002    -1.2159970646594279E-002
   7.9125000000000001E-002    -1.0848808938124458E-002
   7.9500000000000001E-002    -7.6018351780167918E-003
   7.9875000000000002E-002    -2.5610028177597789E-003
   8.0250000000000002E-002     3.9510279416055567E-003
   8.0625000000000002E-002     1.1430386684456447E-002
   8.1000000000000003E-002     1.9259587243965374E-002
   8.1375000000000003E-002     2.6727386964495906E-002
   8.1750000000000003E-002     3.3096907445580345E-002
   8.2125000000000004E-002     3.7690883461741015E-002
   8.2500000000000004E-002     3.9944409959516300E-002
   8.2875000000000004E-002     3.9486343153625703E-002
   8.3250000000000005E-002     3.6157864559930725E-002
   8.3625000000000005E-002     3.0077637249332944E-002
   8.4000000000000005E-002     2.1610037358351004E-002
   8.4375000000000006E-002     1.1338718009045633E-002
   8.4750000000000006E-002     4.6151506352402850E-005
   8.5125000000000006E-002    -1.1420163277658626E-002
   8.5500000000000007E-002    -2.2178298261423798E-002
   8.5875000000000007E-002    -3.1432041275830436E-002
   8.6250000000000007E-002    -3.8578327558322204E-002
   8.6625000000000008E-002    -4.3232539964750447E-002
   8.7000000000000008E-002    -4.5325598950516306E-002
   8.7375000000000008E-002    -4.5098385981277696E-002
   8.7750000000000009E-002    -4.3056665098300868E-002
   8.8125000000000009E-002    -3.9990487550922216E-002
   8.8500000000000009E-002    -3.6770927095188838E-002
   8.8875000000000010E-002    -3.4350065627909120E-002
   8.9250000000000010E-002    -3.3541613245580283E-002
   8.9625000000000010E-002    -3.4958903796042051E-002
   9.0000000000000011E-002    -3.8896658577667116E-002
   9.0375000000000011E-002    -4.5257121937019584E-002
   9.0750000000000011E-002    -5.3571039809671636E-002
   9.1125000000000012E-002    -6.3007980419088061E-002
   9.1500000000000012E-002    -7.2476011232561810E-002
   9.1875000000000012E-002    -8.0755904680807303E-002
   9.2250000000000013E-002    -8.6648885878120835E-002
   9.2624999999999999E-002    -8.9069304861052620E-002
   9.2999999999999999E-002    -8.7268751399007027E-002
   9.3375000000000000E-002    -8.0805416824648563E-002
   9.3750000000000000E-002    -6.9635702676430128E-002
   9.4125000000000000E-002    -5.4118777751230272E-002
   9.4500000000000001E-002    -3.4866357418654820E-002
   9.4875000000000001E-002    -1.2779897543661855E-002
   9.5250000000000001E-002     1.1177548972799907E-002
   9.5625000000000002E-002     3.5981748903401160E-002
   9.6000000000000002E-002     6.0637000580071827E-002
   9.6375000000000002E-002     8.4243509525667976E-002
   9.6750000000000003E-002    0.10597314842482629     
   9.7125000000000003E-002    0.12508680016744361     
   9.7500000000000003E-002    0.14087712768338073     
   9.7875000000000004E-002    0.15271321403218699     
   9.8250000000000004E-002    0.15998653457886969     
   9.8625000000000004E-002    0.16218773732862171     
   9.9000000000000005E-002    0.15893730565079345     
   9.9375000000000005E-002    0.15004912275001023     
   9.9750000000000005E-002    0.13560996714412865     
  0.10012500000000001         0.11601387778734749     
  0.10050000000000001          9.1998002082257863E-002
  0.10087500000000001          6.4573985520458510E-002
  0.10125000000000001          3.5033161326126286E-002
  0.10162500000000001          4.7820139214881487E-003
  0.10200000000000001         -2.4713611151951542E-002
  0.10237500000000001         -5.2113300322041575E-002
  0.10275000000000001         -7.6207208830613743E-002
  0.10312500000000001         -9.6072465356424525E-002
  0.10350000000000001        -0.11107962151476612     
  0.10387500000000001        -0.12082328965930306     
  0.10425000000000001        -0.12524417764012361     
  0.10462500000000001        -0.12441981090497570     
  0.10500000000000001        -0.11864045619821578     
  0.10537500000000001        -0.10831030653148332     
  0.10575000000000001         -9.3941214345355392E-002
  0.10612500000000001         -7.6129832067460365E-002
  0.10650000000000001         -5.5556532688963281E-002
  0.10687500000000001         -3.2973934528415773E-002
  0.10725000000000001         -9.2202321281888537E-003
  0.10762500000000001          1.4789213369655180E-002
  0.10800000000000001          3.8113695320646457E-002
  0.10837500000000001          5.9767936126671549E-002
  0.10875000000000001          7.8785970128917096E-002
  0.10912500000000000          9.4245041040484631E-002
  0.10950000000000000         0.10531411934302563     
  0.10987500000000000         0.11130471825562963     
  0.11025000000000000         0.11170519565900879     
  0.11062500000000001         0.10623116065459358     
  0.11100000000000000          9.4887832134883721E-002
  0.11137500000000002          7.7990268677116170E-002
  0.11175000000000000          5.6192249915552522E-002
  0.11212500000000002          3.0521492983474952E-002
  0.11250000000000000          2.2593196614186352E-003
  0.11287500000000002         -2.6973377528754020E-002
  0.11325000000000000         -5.5479225066704489E-002
  0.11362500000000002         -8.1493508064018338E-002
  0.11400000000000000        -0.10337222921320566     
  0.11437500000000002        -0.11973326515373067     
  0.11475000000000000        -0.12955460281981149     
  0.11512500000000002        -0.13227725619171030     
  0.11550000000000001        -0.12780190540602979     
  0.11587500000000002        -0.11651096176694278     
  0.11625000000000001         -9.9175948656843954E-002
  0.11662500000000002         -7.6862991859710475E-002
  0.11700000000000001         -5.0856100539460325E-002
  0.11737499999999999         -2.2512565067120502E-002
  0.11775000000000001          6.7562065108244538E-003
  0.11812499999999999          3.5628516710520357E-002
  0.11850000000000001          6.2794528653327270E-002
  0.11887499999999999          8.7056626519067676E-002
  0.11925000000000001         0.10727813280144503     
  0.11962500000000000         0.12243473293306115     
  0.12000000000000001         0.13157701055417068     
  0.12037500000000000         0.13398175717872574     
  0.12075000000000001         0.12912167464511268     
  0.12112500000000000         0.11680476880997488     
  0.12150000000000001          9.7280055089268194E-002
  0.12187500000000000          7.1194272092875169E-002
  0.12225000000000001          3.9759732565494241E-002
  0.12262500000000000          4.6412436923622246E-003
  0.12300000000000001         -3.2119528411458445E-002
  0.12337500000000000         -6.8172419562291545E-002
  0.12375000000000001        -0.10105827273841558     
  0.12412500000000000        -0.12845322143073629     
  0.12450000000000001        -0.14832090469380638     
  0.12487500000000000        -0.15911360923902718     
  0.12525000000000003        -0.16002192536155574     
  0.12562499999999999        -0.15092315792750211     
  0.12600000000000000        -0.13259302505949208     
  0.12637500000000002        -0.10645814783018340     
  0.12675000000000003         -7.4656282170446675E-002
  0.12712499999999999         -3.9653486013133024E-002
  0.12750000000000000         -4.1066358643438820E-003
  0.12787500000000002          2.9400012364854997E-002
  0.12825000000000003          5.8729142900094559E-002
  0.12862499999999999          8.2155096353687035E-002
  0.12900000000000000          9.8772086166602269E-002
  0.12937500000000002         0.10825129444977553     
  0.12975000000000003         0.11095969426795485     
  0.13012499999999999         0.10776930477861441     
  0.13050000000000000          9.9862883467687014E-002
  0.13087500000000002          8.8529140445747376E-002
  0.13125000000000003          7.5027544432293980E-002
  0.13162499999999999          6.0373633909692234E-002
  0.13200000000000001          4.5293722166462283E-002
  0.13237500000000002          3.0304943693574105E-002
  0.13275000000000003          1.5570836979746296E-002
  0.13312499999999999          1.2551737152684352E-003
  0.13350000000000001         -1.2539489588513508E-002
  0.13387500000000002         -2.5559147667403241E-002
  0.13424999999999998         -3.7339332562384663E-002
  0.13462499999999999         -4.7193824121004313E-002
  0.13500000000000001         -5.4242270814520654E-002
  0.13537500000000002         -5.7536905884206180E-002
  0.13574999999999998         -5.6239707771768663E-002
  0.13612500000000000         -4.9803029785219659E-002
  0.13650000000000001         -3.8171465267847995E-002
  0.13687500000000002         -2.1932170545928342E-002
  0.13724999999999998         -2.3267775819756477E-003
  0.13762500000000000          1.8676152483846555E-002
  0.13800000000000001          3.8727939715417700E-002
  0.13837500000000003          5.5224408459530382E-002
  0.13874999999999998          6.5713500003669129E-002
  0.13912500000000000          6.8356693477002295E-002
  0.13950000000000001          6.2161002179840122E-002
  0.13987500000000003          4.7304543202164345E-002
  0.14024999999999999          2.5215715035676451E-002
  0.14062500000000000         -1.5089724800211213E-003
  0.14100000000000001         -2.9464742043395865E-002
  0.14137500000000003         -5.4806288545761292E-002
  0.14174999999999999         -7.3820531987398838E-002
  0.14212500000000000         -8.3555619761260413E-002
  0.14250000000000002         -8.2184956776665499E-002
  0.14287500000000003         -6.9464670759959379E-002
  0.14324999999999999         -4.6682298125067197E-002
  0.14362500000000000         -1.6654286367146730E-002
  0.14400000000000002          1.6687791644307063E-002
  0.14437500000000003          4.8907956115902151E-002
  0.14474999999999999          7.5515583722607416E-002
  0.14512500000000000          9.2761231786959594E-002
  0.14550000000000002          9.8038033610351655E-002
  0.14587500000000003          9.0272787633462609E-002
  0.14624999999999999          7.0050774482301834E-002
  0.14662500000000001          3.9523555814284107E-002
  0.14700000000000002          2.0860361680506249E-003
  0.14737500000000003         -3.8081023090762112E-002
  0.14774999999999999         -7.6544860109189802E-002
  0.14812500000000001        -0.10922698119413707     
  0.14850000000000002        -0.13283944235711870     
  0.14887500000000004        -0.14524956216992516     
  0.14924999999999999        -0.14571220263615892     
  0.14962500000000001        -0.13471399471090401     
  0.15000000000000002        -0.11397525544881970     
  0.15037499999999998         -8.5899735062514276E-002
  0.15075000000000000         -5.3418169173979659E-002
  0.15112500000000001         -1.9324433935775535E-002
  0.15150000000000002          1.3860939761282571E-002
  0.15187499999999998          4.4178342209986655E-002
  0.15225000000000000          7.0455936939534294E-002
  0.15262500000000001          9.2023865305737113E-002
  0.15300000000000002         0.10876366398311786     
  0.15337499999999998         0.12080434499708206     
  0.15375000000000000         0.12824667586782118     
  0.15412500000000001         0.13108893432922872     
  0.15450000000000003         0.12906353633150008     
  0.15487499999999998         0.12172645429378236     
  0.15525000000000000         0.10854209230321613     
  0.15562500000000001          8.9227541654284176E-002
  0.15600000000000003          6.3836739937002174E-002
  0.15637499999999999          3.3148390762801266E-002
  0.15675000000000000         -1.3282747049572791E-003
  0.15712500000000001         -3.7310486226292232E-002
  0.15750000000000003         -7.1912918952816901E-002
  0.15787499999999999        -0.10201370412639996     
  0.15825000000000000        -0.12448851323443194     
  0.15862500000000002        -0.13689043153986336     
  0.15900000000000003        -0.13759097079059884     
  0.15937499999999999        -0.12621373784513443     
  0.15975000000000000        -0.10372034666851589     
  0.16012500000000002         -7.2235668068759223E-002
  0.16050000000000003         -3.4982409064650916E-002
  0.16087499999999999          4.3149562950502048E-003
  0.16125000000000000          4.1775888647999346E-002
  0.16162500000000002          7.3895192730097037E-002
  0.16200000000000003          9.7861362935470472E-002
  0.16237499999999999         0.11208199697564108     
  0.16275000000000001         0.11593738483484239     
  0.16312500000000002         0.11007276902420728     
  0.16350000000000003          9.6049669733894824E-002
  0.16387499999999999          7.6003044879310019E-002
  0.16425000000000001          5.2480100145858355E-002
  0.16462500000000002          2.7906598971954980E-002
  0.16500000000000004          4.4635164253197350E-003
  0.16537499999999999         -1.6155025990626792E-002
  0.16575000000000001         -3.2793906438569560E-002
  0.16612500000000002         -4.4859463194834789E-002
  0.16650000000000004         -5.2125918492974474E-002
  0.16687500000000000         -5.4703620533369995E-002
  0.16725000000000001         -5.2918917929944520E-002
  0.16762500000000002         -4.7129053099011900E-002
  0.16799999999999998         -3.7871354375842242E-002
  0.16837500000000000         -2.5752779080694413E-002
  0.16875000000000001         -1.1607052738613018E-002
  0.16912500000000003          3.4449842638340110E-003
  0.16949999999999998          1.7979813487882530E-002
  0.16987500000000000          3.0295130559011965E-002
  0.17025000000000001          3.8578468193232490E-002
  0.17062500000000003          4.1086918673653910E-002
  0.17099999999999999          3.6488675614819069E-002
  0.17137500000000000          2.4195754074829143E-002
  0.17175000000000001          4.4857898656548590E-003
  0.17212500000000003         -2.1187940066826495E-002
  0.17249999999999999         -5.0434260227323169E-002
  0.17287500000000000         -7.9976459832168278E-002
  0.17325000000000002        -0.10617240961349027     
  0.17362500000000003        -0.12549341257214075     
  0.17399999999999999        -0.13502407037173783     
  0.17437500000000000        -0.13306083333327079     
  0.17475000000000002        -0.11928024205820589     
  0.17512500000000003         -9.5017371863661632E-002
  0.17549999999999999         -6.2986629558700338E-002
  0.17587500000000000         -2.7002076529212510E-002
  0.17625000000000002          8.6418079230850368E-003
  0.17662500000000003          3.9802160147048030E-002
  0.17699999999999999          6.3017788105137210E-002
  0.17737500000000000          7.6169440735034982E-002
  0.17775000000000002          7.8541441803059914E-002
  0.17812500000000003          7.1071912755977351E-002
  0.17849999999999999          5.5959788086617314E-002
  0.17887500000000001          3.6398758036763151E-002
  0.17925000000000002          1.5980809924233997E-002
  0.17962500000000003         -1.7948320153672722E-003
  0.17999999999999999         -1.3928303556878161E-002
  0.18037500000000001         -1.8385761887421324E-002
  0.18075000000000002         -1.3989894887862420E-002
  0.18112500000000004         -6.6966146328969849E-004
  0.18149999999999999          2.0862442814853999E-002
  0.18187500000000001          4.9183807466539144E-002
  0.18225000000000002          8.2421920098234569E-002
  0.18262500000000004         0.11833895572434189     
  0.18300000000000000         0.15447053690129550     
  0.18337500000000001         0.18814317309360681     
  0.18375000000000002         0.21650051454309521     
  0.18412499999999998         0.23664861896056361     
  0.18450000000000000         0.24572074981238462     
  0.18487500000000001         0.24117678508737184     
  0.18525000000000003         0.22115586782933011     
  0.18562499999999998         0.18475293745940627     
  0.18600000000000000         0.13230235150078590     
  0.18637500000000001          6.5715725408378334E-002
  0.18675000000000003         -1.1698693111848296E-002
  0.18712499999999999         -9.5336807698972639E-002
  0.18750000000000000        -0.17969121449398073     
  0.18787500000000001        -0.25895617910438062     
  0.18825000000000003        -0.32760803650723869     
  0.18862499999999999        -0.38104886393614468     
  0.18900000000000000        -0.41609911086883611     