  -1.4999999999999999E-002     0.0000000000000000     
  -1.4624999999999999E-002     0.0000000000000000     
  -1.4249999999999999E-002     0.0000000000000000     
  -1.3874999999999998E-002     0.0000000000000000     
  -1.3500000000000000E-002     0.0000000000000000     
  -1.3125000000000000E-002     0.0000000000000000     
  -1.2749999999999999E-002     0.0000000000000000     
  -1.2374999999999999E-002     0.0000000000000000     
  -1.2000000000000000E-002     0.0000000000000000     
  -1.1625000000000000E-002     0.0000000000000000     
  -1.1250000000000000E-002     0.0000000000000000     
  -1.0874999999999999E-002     0.0000000000000000     
  -1.0499999999999999E-002     0.0000000000000000     
  -1.0124999999999999E-002     0.0000000000000000     
  -9.7499999999999983E-003     0.0000000000000000     
  -9.3749999999999979E-003     0.0000000000000000     
  -8.9999999999999993E-003     0.0000000000000000     
  -8.6249999999999990E-003     0.0000000000000000     
  -8.2500000000000004E-003     0.0000000000000000     
  -7.8750000000000001E-003     0.0000000000000000     
  -7.4999999999999989E-003     0.0000000000000000     
  -7.1249999999999994E-003     0.0000000000000000     
  -6.7499999999999991E-003     0.0000000000000000     
  -6.3749999999999987E-003     0.0000000000000000     
  -5.9999999999999984E-003     0.0000000000000000     
  -5.6249999999999998E-003     0.0000000000000000     
  -5.2499999999999995E-003     0.0000000000000000     
  -4.8749999999999991E-003     0.0000000000000000     
  -4.4999999999999988E-003     0.0000000000000000     
  -4.1249999999999985E-003     0.0000000000000000     
  -3.7499999999999981E-003     0.0000000000000000     
  -3.3749999999999995E-003     0.0000000000000000     
  -2.9999999999999992E-003     0.0000000000000000     
  -2.6249999999999989E-003     0.0000000000000000     
  -2.2499999999999985E-003     0.0000000000000000     
  -1.8749999999999982E-003     0.0000000000000000     
  -1.4999999999999996E-003     0.0000000000000000     
  -1.1249999999999993E-003     0.0000000000000000     
  -7.4999999999999893E-004     0.0000000000000000     
  -3.7499999999999860E-004     0.0000000000000000     
   1.7347234759768071E-018     0.0000000000000000     
   3.7500000000000207E-004     0.0000000000000000     
   7.5000000000000067E-004     0.0000000000000000     
   1.1250000000000010E-003     0.0000000000000000     
   1.5000000000000013E-003     0.0000000000000000     
   1.8750000000000017E-003     0.0000000000000000     
   2.2500000000000020E-003     0.0000000000000000     
   2.6250000000000023E-003     0.0000000000000000     
   3.0000000000000027E-003     0.0000000000000000     
   3.3750000000000030E-003     0.0000000000000000     
   3.7499999999999999E-003     0.0000000000000000     
   4.1250000000000002E-003     0.0000000000000000     
   4.5000000000000005E-003     0.0000000000000000     
   4.8750000000000009E-003     0.0000000000000000     
   5.2500000000000012E-003     0.0000000000000000     
   5.6250000000000015E-003     0.0000000000000000     
   6.0000000000000019E-003     0.0000000000000000     
   6.3750000000000022E-003     0.0000000000000000     
   6.7500000000000025E-003     0.0000000000000000     
   7.1250000000000029E-003     0.0000000000000000     
   7.5000000000000032E-003     0.0000000000000000     
   7.8750000000000001E-003     0.0000000000000000     
   8.2500000000000004E-003     0.0000000000000000     
   8.6250000000000007E-003     0.0000000000000000     
   9.0000000000000011E-003     0.0000000000000000     
   9.3750000000000014E-003     0.0000000000000000     
   9.7500000000000017E-003     0.0000000000000000     
   1.0125000000000002E-002     0.0000000000000000     
   1.0500000000000002E-002     0.0000000000000000     
   1.0875000000000003E-002     0.0000000000000000     
   1.1250000000000003E-002     0.0000000000000000     
   1.1625000000000003E-002     0.0000000000000000     
   1.2000000000000000E-002     0.0000000000000000     
   1.2375000000000001E-002     0.0000000000000000     
   1.2750000000000001E-002     0.0000000000000000     
   1.3125000000000001E-002     0.0000000000000000     
   1.3500000000000002E-002     0.0000000000000000     
   1.3875000000000002E-002     0.0000000000000000     
   1.4250000000000002E-002     0.0000000000000000     
   1.4625000000000003E-002     0.0000000000000000     
   1.5000000000000003E-002     0.0000000000000000     
   1.5375000000000003E-002     0.0000000000000000     
   1.5750000000000004E-002     0.0000000000000000     
   1.6125000000000000E-002     0.0000000000000000     
   1.6500000000000001E-002     0.0000000000000000     
   1.6875000000000001E-002     0.0000000000000000     
   1.7250000000000001E-002     8.6648387280282393E-052
   1.7625000000000002E-002     1.4330496681373648E-049
   1.8000000000000002E-002    -9.3307421897127107E-038
   1.8375000000000002E-002     1.0598945186920533E-035
   1.8750000000000003E-002    -1.8264721857788381E-035
   1.9125000000000003E-002    -3.3261066329708467E-033
   1.9500000000000003E-002    -9.4405396176074301E-032
   1.9875000000000004E-002    -9.2628705276073964E-032
   2.0250000000000004E-002     3.6390373840802509E-030
   2.0625000000000004E-002    -2.5927922236190673E-030
   2.1000000000000005E-002    -9.3300360280259576E-029
   2.1375000000000005E-002     4.9312576513005851E-028
   2.1750000000000005E-002    -8.7207763865308334E-028
   2.2125000000000006E-002    -2.7168212142792345E-027
   2.2499999999999999E-002     2.5314042378981640E-026
   2.2875000000000000E-002    -1.1551578874242982E-025
   2.3250000000000000E-002     5.1735828243229785E-025
   2.3625000000000000E-002     2.6086200391172301E-024
   2.4000000000000000E-002     9.6735322803613942E-024
   2.4375000000000001E-002     3.6734948443923083E-023
   2.4750000000000001E-002     1.3947756340138739E-022
   2.5125000000000001E-002     5.1809851718043525E-022
   2.5500000000000002E-002     1.8922192618264195E-021
   2.5875000000000002E-002     6.7827509469405534E-021
   2.6250000000000002E-002     2.3873989552161786E-020
   2.6625000000000003E-002     8.2506058593647905E-020
   2.7000000000000003E-002     2.7994676159834966E-019
   2.7375000000000003E-002     9.3260504486275832E-019
   2.7750000000000004E-002     3.0502760998874568E-018
   2.8125000000000004E-002     9.7946840079897721E-018
   2.8500000000000004E-002     3.0878320758783694E-017
   2.8875000000000005E-002     9.5567496828646324E-017
   2.9250000000000005E-002     2.9037203589213685E-016
   2.9625000000000005E-002     8.6611965939315497E-016
   3.0000000000000006E-002     2.5361280614905519E-015
   3.0375000000000006E-002     7.2899557121739569E-015
   3.0750000000000000E-002     2.0569550806202636E-014
   3.1125000000000000E-002     5.6971950840769857E-014
   3.1500000000000000E-002     1.5488957955560611E-013
   3.1875000000000001E-002     4.1332754284109836E-013
   3.2250000000000001E-002     1.0825913792772081E-012
   3.2625000000000001E-002     2.7830372347653290E-012
   3.3000000000000002E-002     7.0216438325366253E-012
   3.3375000000000002E-002     1.7386469245105773E-011
   3.3750000000000002E-002     4.2249004617699911E-011
   3.4125000000000003E-002     1.0074856734022937E-010
   3.4500000000000003E-002     2.3575251388503945E-010
   3.4875000000000003E-002     5.4130934639312884E-010
   3.5250000000000004E-002     1.2195277745206124E-009
   3.5625000000000004E-002     2.6956209139795005E-009
   3.6000000000000004E-002     5.8456088583904951E-009
   3.6375000000000005E-002     1.2435892533445816E-008
   3.6750000000000005E-002     2.5951518394685906E-008
   3.7125000000000005E-002     5.3120322563723957E-008
   3.7500000000000006E-002     1.0664349187078671E-007
   3.7875000000000006E-002     2.0996331027525082E-007
   3.8250000000000006E-002     4.0536917132137049E-007
   3.8625000000000007E-002     7.6737938633267158E-007
   3.9000000000000000E-002     1.4241826666549054E-006
   3.9375000000000000E-002     2.5910506205952737E-006
   3.9750000000000001E-002     4.6203053065739191E-006
   4.0125000000000001E-002     8.0740855252325472E-006
   4.0500000000000001E-002     1.3825121762877871E-005
   4.0875000000000002E-002     2.3191011477335418E-005
   4.1250000000000002E-002     3.8102996496507674E-005
   4.1625000000000002E-002     6.1303260877556542E-005
   4.2000000000000003E-002     9.6560406148059382E-005
   4.2375000000000003E-002     1.4885342077845291E-004
   4.2750000000000003E-002     2.2452084990356850E-004
   4.3125000000000004E-002     3.3120819848221801E-004
   4.3500000000000004E-002     4.7768787782202099E-004
   4.3875000000000004E-002     6.7322052489031208E-004
   4.4250000000000005E-002     9.2665853848958161E-004
   4.4625000000000005E-002     1.2449169730421959E-003
   4.5000000000000005E-002     1.6311952584071290E-003
   4.5375000000000006E-002     2.0827195995861080E-003
   4.5750000000000006E-002     2.5884695469304587E-003
   4.6125000000000006E-002     3.1275296155440528E-003
   4.6500000000000007E-002     3.6676602398565163E-003
   4.6875000000000007E-002     4.1665264487049936E-003
   4.7250000000000000E-002     4.5732898525931327E-003
   4.7625000000000001E-002     4.8339356001769127E-003
   4.8000000000000001E-002     4.8982457464502643E-003
   4.8375000000000001E-002     4.7275520448150608E-003
   4.8750000000000002E-002     4.3045918994718433E-003
   4.9125000000000002E-002     3.6409513788640668E-003
   4.9500000000000002E-002     2.7810530010771162E-003
   4.9875000000000003E-002     1.8030089690292978E-003
   5.0250000000000003E-002     8.1055685216196668E-004
   5.0625000000000003E-002    -7.8235289912977115E-005
   5.1000000000000004E-002    -7.5291134463246795E-004
   5.1375000000000004E-002    -1.1294666656564826E-003
   5.1750000000000004E-002    -1.1750734130756878E-003
   5.2125000000000005E-002    -9.2543294487529596E-004
   5.2500000000000005E-002    -4.9069324480239119E-004
   5.2875000000000005E-002    -5.4404469184549329E-005
   5.3250000000000006E-002     1.4391327565525135E-004
   5.3625000000000006E-002    -1.5696900185193968E-004
   5.4000000000000006E-002    -1.2074200016846054E-003
   5.4375000000000007E-002    -3.1929834164915517E-003
   5.4750000000000007E-002    -6.2098477849492333E-003
   5.5125000000000007E-002    -1.0218416683180829E-002
   5.5500000000000008E-002    -1.5047670250858184E-002
   5.5875000000000008E-002    -2.0390693163606949E-002
   5.6250000000000008E-002    -2.5837709701588222E-002
   5.6625000000000009E-002    -3.0915516072659965E-002
   5.7000000000000009E-002    -3.5148800349591634E-002
   5.7375000000000009E-002    -3.8102530882555136E-002
   5.7750000000000010E-002    -3.9443817392702682E-002
   5.8125000000000010E-002    -3.8966772773595941E-002
   5.8500000000000010E-002    -3.6621966827871860E-002
   5.8875000000000011E-002    -3.2498408065514850E-002
   5.9250000000000011E-002    -2.6816338439487150E-002
   5.9624999999999997E-002    -1.9893249004967209E-002
   5.9999999999999998E-002    -1.2099883674299108E-002
   6.0374999999999998E-002    -3.8148690266443805E-003
   6.0749999999999998E-002     4.5868916074931375E-003
   6.1124999999999999E-002     1.2786799177608029E-002
   6.1499999999999999E-002     2.0520538288421011E-002
   6.1874999999999999E-002     2.7562430663144906E-002
   6.2250000000000000E-002     3.3759574396273820E-002
   6.2625000000000000E-002     3.8967625352813645E-002
   6.3000000000000000E-002     4.3068135357058224E-002
   6.3375000000000001E-002     4.5948052412639613E-002
   6.3750000000000001E-002     4.7488449194450832E-002
   6.4125000000000001E-002     4.7584866177764154E-002
   6.4500000000000002E-002     4.6137496903666739E-002
   6.4875000000000002E-002     4.3105051141885481E-002
   6.5250000000000002E-002     3.8502355883093378E-002
   6.5625000000000003E-002     3.2460380072688672E-002
   6.6000000000000003E-002     2.5216010062952519E-002
   6.6375000000000003E-002     1.7157774997988710E-002
   6.6750000000000004E-002     8.7878488836491634E-003
   6.7125000000000004E-002     7.2792551998669425E-004
   6.7500000000000004E-002    -6.3491833289910562E-003
   6.7875000000000005E-002    -1.1790929620833949E-002
   6.8250000000000005E-002    -1.5000311468866451E-002
   6.8625000000000005E-002    -1.5580329298107591E-002
   6.9000000000000006E-002    -1.3339612986106775E-002
   6.9375000000000006E-002    -8.4014268389245861E-003
   6.9750000000000006E-002    -1.1833389916101685E-003
   7.0125000000000007E-002     7.6027708593125569E-003
   7.0500000000000007E-002     1.6990964599364333E-002
   7.0875000000000007E-002     2.5903842961549690E-002
   7.1250000000000008E-002     3.3193428035738520E-002
   7.1625000000000008E-002     3.7858245908385504E-002
   7.2000000000000008E-002     3.9104725398528883E-002
   7.2375000000000009E-002     3.6492550319032362E-002
   7.2750000000000009E-002     2.9990067421648989E-002
   7.3125000000000009E-002     1.9996093853409908E-002
   7.3500000000000010E-002     7.3234144404145506E-003
   7.3875000000000010E-002    -6.8862033911260678E-003
   7.4250000000000010E-002    -2.1298549128456461E-002
   7.4625000000000011E-002    -3.4506693834392560E-002
   7.5000000000000011E-002    -4.5206536757842676E-002
   7.5375000000000011E-002    -5.2342260333242650E-002
   7.5750000000000012E-002    -5.5197862328619431E-002
   7.6124999999999998E-002    -5.3531209252673559E-002
   7.6499999999999999E-002    -4.7517590546968698E-002
   7.6874999999999999E-002    -3.7778050031139924E-002
   7.7249999999999999E-002    -2.5290445532779853E-002
   7.7625000000000000E-002    -1.1242754925631357E-002
   7.8000000000000000E-002     3.0462292071200348E-003
   7.8375000000000000E-002     1.6328587636368640E-002
   7.8750000000000001E-002     2.7505320258502441E-002
   7.9125000000000001E-002     3.5738801960914585E-002
   7.9500000000000001E-002     4.0518228279153190E-002
   7.9875000000000002E-002     4.1668498502585367E-002
   8.0250000000000002E-002     3.9348425091095263E-002
   8.0625000000000002E-002     3.3969994269078575E-002
   8.1000000000000003E-002     2.6161445666188995E-002
   8.1375000000000003E-002     1.6654028000719870E-002
   8.1750000000000003E-002     6.2482795411402531E-003
   8.2125000000000004E-002    -4.3238981671821003E-003
   8.2500000000000004E-002    -1.4389698425919216E-002
   8.2875000000000004E-002    -2.3434034841102545E-002
   8.3250000000000005E-002    -3.1112357895361507E-002
   8.3625000000000005E-002    -3.7237447382744690E-002
   8.4000000000000005E-002    -4.1874965760348909E-002
   8.4375000000000006E-002    -4.5217740758353456E-002
   8.4750000000000006E-002    -4.7657177189990428E-002
   8.5125000000000006E-002    -4.9672204523479355E-002
   8.5500000000000007E-002    -5.1790577705761412E-002
   8.5875000000000007E-002    -5.4531341247548812E-002
   8.6250000000000007E-002    -5.8235685551895053E-002
   8.6625000000000008E-002    -6.3098236256201173E-002
   8.7000000000000008E-002    -6.8989087704045493E-002
   8.7375000000000008E-002    -7.5519011497000271E-002
   8.7750000000000009E-002    -8.1998541236380479E-002
   8.8125000000000009E-002    -8.7494523858179393E-002
   8.8500000000000009E-002    -9.0964298573745578E-002
   8.8875000000000010E-002    -9.1359397964614592E-002
   8.9250000000000010E-002    -8.7734635068973915E-002
   8.9625000000000010E-002    -7.9421902427916261E-002
   9.0000000000000011E-002    -6.6067172247136985E-002
   9.0375000000000011E-002    -4.7711226672014606E-002
   9.0750000000000011E-002    -2.4780740078822028E-002
   9.1125000000000012E-002     1.9461095724068369E-003
   9.1500000000000012E-002     3.1427391032998991E-002
   9.1875000000000012E-002     6.2394192832375683E-002
   9.2250000000000013E-002     9.3495265022974103E-002
   9.2624999999999999E-002    0.12330509173159127     
   9.2999999999999999E-002    0.15042858992973229     
   9.3375000000000000E-002    0.17351309906632872     
   9.3750000000000000E-002    0.19130189507219567     
   9.4125000000000000E-002    0.20267509006560477     
   9.4500000000000001E-002    0.20669381071962287     
   9.4875000000000001E-002    0.20269253349098365     
   9.5250000000000001E-002    0.19032870407354760     
   9.5625000000000002E-002    0.16968214900775830     
   9.6000000000000002E-002    0.14131400117825399     
   9.6375000000000002E-002    0.10630329737336568     
   9.6750000000000003E-002     6.6209885016652495E-002
   9.7125000000000003E-002     2.3033308918894151E-002
   9.7500000000000003E-002    -2.0923791397009183E-002
   9.7875000000000004E-002    -6.3210437517918189E-002
   9.8250000000000004E-002   -0.10143770520056525     
   9.8625000000000004E-002   -0.13345512430942830     
   9.9000000000000005E-002   -0.15751037998467590     
   9.9375000000000005E-002   -0.17244698616833232     
   9.9750000000000005E-002   -0.17770019910830226     
  0.10012500000000001        -0.17339285272862329     
  0.10050000000000001        -0.16026267758958770     
  0.10087500000000001        -0.13955602841287890     
  0.10125000000000001        -0.11293738051334390     
  0.10162500000000001         -8.2282197878013802E-002
  0.10200000000000001         -4.9573014518326838E-002
  0.10237500000000001         -1.6707978429760902E-002
  0.10275000000000001          1.4622357737028240E-002
  0.10312500000000001          4.2967182895205833E-002
  0.10350000000000001          6.7264246968409713E-002
  0.10387500000000001          8.6730805556507445E-002
  0.10425000000000001         0.10096247149612578     
  0.10462500000000001         0.10978855919069694     
  0.10500000000000001         0.11326573078399568     
  0.10537500000000001         0.11161311241005237     
  0.10575000000000001         0.10513492761229330     
  0.10612500000000001          9.4244689274248825E-002
  0.10650000000000001          7.9379160197643767E-002
  0.10687500000000001          6.1100799162023392E-002
  0.10725000000000001          4.0035855144906797E-002
  0.10762500000000001          1.6960635547719496E-002
  0.10800000000000001         -7.2109208286620444E-003
  0.10837500000000001         -3.1452829805089663E-002
  0.10875000000000001         -5.4599075558200892E-002
  0.10912500000000000         -7.5511904269583929E-002
  0.10950000000000000         -9.3028558258674898E-002
  0.10987500000000000        -0.10618443942793318     
  0.11025000000000000        -0.11419736283030579     
  0.11062500000000001        -0.11657784504204641     
  0.11100000000000000        -0.11315997598801264     
  0.11137500000000002        -0.10408046989237492     
  0.11175000000000000         -8.9789138198379345E-002
  0.11212500000000002         -7.0948369617429452E-002
  0.11250000000000000         -4.8466154033069989E-002
  0.11287500000000002         -2.3332327746115794E-002
  0.11325000000000000          3.2752637041342479E-003
  0.11362500000000002          3.0143821965265896E-002
  0.11400000000000000          5.5962660022331481E-002
  0.11437500000000002          7.9343616246377313E-002
  0.11475000000000000          9.8922147514644301E-002
  0.11512500000000002         0.11333147863236220     
  0.11550000000000001         0.12135833959789527     
  0.11587500000000002         0.12204613939044451     
  0.11625000000000001         0.11479716625847303     
  0.11662500000000002          9.9523473963016196E-002
  0.11700000000000001          7.6764415798064839E-002
  0.11737499999999999          4.7636555797251762E-002
  0.11775000000000001          1.3971835363278406E-002
  0.11812499999999999         -2.1948075642866979E-002
  0.11850000000000001         -5.7422162733541227E-002
  0.11887499999999999         -8.9594557137036637E-002
  0.11925000000000001        -0.11579262885689995     
  0.11962500000000000        -0.13362776987007335     
  0.12000000000000001        -0.14147045326453797     
  0.12037500000000000        -0.13847375479970195     
  0.12075000000000001        -0.12478249982477041     
  0.12112500000000000        -0.10163023285013807     
  0.12150000000000001         -7.1074536424846124E-002
  0.12187500000000000         -3.6027090027937241E-002
  0.12225000000000001          1.9432974352398807E-004
  0.12262500000000000          3.4169042255609169E-002
  0.12300000000000001          6.2739612238919731E-002
  0.12337500000000000          8.3389569787291493E-002
  0.12375000000000001          9.4560884915656576E-002
  0.12412500000000000          9.5797624012351285E-002
  0.12450000000000001          8.7773619901670485E-002
  0.12487500000000000          7.2251420757723367E-002
  0.12525000000000003          5.1718495775321754E-002
  0.12562499999999999          2.9135007987390521E-002
  0.12600000000000000          7.4724545823870378E-003
  0.12637500000000002         -1.0654551946280025E-002
  0.12675000000000003         -2.3332663789194324E-002
  0.12712499999999999         -2.9501827521633286E-002
  0.12750000000000000         -2.9128154953480312E-002
  0.12787500000000002         -2.3016298854496693E-002
  0.12825000000000003         -1.2674766191388647E-002
  0.12862499999999999         -4.9865077951345531E-005
  0.12900000000000000          1.2848874890656642E-002
  0.12937500000000002          2.4207328707588273E-002
  0.12975000000000003          3.2674869009764289E-002
  0.13012499999999999          3.7483441449456416E-002
  0.13050000000000000          3.8542211580873238E-002
  0.13087500000000002          3.6260595328068981E-002
  0.13125000000000003          3.1523494516193830E-002
  0.13162499999999999          2.5333757683735414E-002
  0.13200000000000001          1.8652713507820943E-002
  0.13237500000000002          1.2213301252809592E-002
  0.13275000000000003          6.2823992086759170E-003
  0.13312499999999999          7.7266157180309273E-004
  0.13350000000000001         -4.8314515116231506E-003
  0.13387500000000002         -1.1134092971229860E-002
  0.13424999999999998         -1.8780577434428496E-002
  0.13462499999999999         -2.8041811500101595E-002
  0.13500000000000001         -3.8643408689775137E-002
  0.13537500000000002         -4.9790714927780769E-002
  0.13574999999999998         -5.9929788257267261E-002
  0.13612500000000000         -6.7195045590772079E-002
  0.13650000000000001         -6.9537965974098781E-002
  0.13687500000000002         -6.5141721348294629E-002
  0.13724999999999998         -5.2917957542136615E-002
  0.13762500000000000         -3.2711817962609246E-002
  0.13800000000000001         -5.6253664063115917E-003
  0.13837500000000003          2.6096841536693824E-002
  0.13874999999999998          5.9095100570982120E-002
  0.13912500000000000          8.9470452092615449E-002
  0.13950000000000001         0.11315246489952310     
  0.13987500000000003         0.12652471563716566     
  0.14024999999999999         0.12701502602798997     
  0.14062500000000000         0.11342231685029064     
  0.14100000000000001          8.6202135124606907E-002
  0.14137500000000003          4.7468204637152865E-002
  0.14174999999999999          7.7786864967343498E-004
  0.14212500000000000         -4.9358832618226788E-002
  0.14250000000000002         -9.7881203698667138E-002
  0.14287500000000003        -0.13990885838969905     
  0.14324999999999999        -0.17122896605709989     
  0.14362500000000000        -0.18875335583404829     
  0.14400000000000002        -0.19091662520153807     
  0.14437500000000003        -0.17760535454043888     
  0.14474999999999999        -0.15029596886073435     
  0.14512500000000000        -0.11162477197864476     
  0.14550000000000002         -6.5179221218246042E-002
  0.14587500000000003         -1.4997612232983921E-002
  0.14624999999999999          3.4932017414932667E-002
  0.14662500000000001          8.0846212275372947E-002
  0.14700000000000002         0.11973069312098328     
  0.14737500000000003         0.14935462550896733     
  0.14774999999999999         0.16839172597584937     
  0.14812500000000001         0.17643612689444799     
  0.14850000000000002         0.17374979007736258     
  0.14887500000000004         0.16127394474925572     
  0.14924999999999999         0.14037398659660918     
  0.14962500000000001         0.11271183516559649     
  0.15000000000000002          8.0123281581631497E-002
  0.15037499999999998          4.4642607518537374E-002
  0.15075000000000000          8.2528396373546132E-003
  0.15112500000000001         -2.6830870104934772E-002
  0.15150000000000002         -5.8518822491605754E-002
  0.15187499999999998         -8.4771011584810319E-002
  0.15225000000000000        -0.10369288977129104     
  0.15262500000000001        -0.11389425509484558     
  0.15300000000000002        -0.11441821088184562     
  0.15337499999999998        -0.10523358547384784     
  0.15375000000000000         -8.7106213291204562E-002
  0.15412500000000001         -6.1761922265523794E-002
  0.15450000000000003         -3.1718552678569267E-002
  0.15487499999999998         -1.4634858909857171E-004
  0.15525000000000000          2.9577540058409645E-002
  0.15562500000000001          5.4265090836690656E-002
  0.15600000000000003          7.1284721306053928E-002
  0.15637499999999999          7.9022593376212730E-002
  0.15675000000000000          7.7024808882211415E-002
  0.15712500000000001          6.6140765814926658E-002
  0.15750000000000003          4.8409820402757389E-002
  0.15787499999999999          2.6669750599009619E-002
  0.15825000000000000          4.2290851426151164E-003
  0.15862500000000002         -1.5719222279655415E-002
  0.15900000000000003         -3.0511774694717976E-002
  0.15937499999999999         -3.8446639148114088E-002
  0.15975000000000000         -3.9007276179005491E-002
  0.16012500000000002         -3.2930413666925742E-002
  0.16050000000000003         -2.1965236150098572E-002
  0.16087499999999999         -8.6449908207265180E-003
  0.16125000000000000          4.1564818631644245E-003
  0.16162500000000002          1.3698791992991635E-002
  0.16200000000000003          1.7698283638746034E-002
  0.16237499999999999          1.4760611393661256E-002
  0.16275000000000001          4.3252310459844330E-003
  0.16312500000000002         -1.3164685587116675E-002
  0.16350000000000003         -3.6442017261513068E-002
  0.16387499999999999         -6.3658400720949276E-002
  0.16425000000000001         -9.2450692085002562E-002
  0.16462500000000002        -0.12035872131205466     
  0.16500000000000004        -0.14480792226947115     
  0.16537499999999999        -0.16325095731363393     
  0.16575000000000001        -0.17336493895236399     
  0.16612500000000002        -0.17302596212051993     
  0.16650000000000004        -0.16049692253295011     
  0.16687500000000000        -0.13462108197247863     
  0.16725000000000001         -9.4945850683005414E-002
  0.16762500000000002         -4.2067146066232956E-002
  0.16799999999999998          2.2297368140287297E-002
  0.16837500000000000          9.5170072549534579E-002
  0.16875000000000001         0.17241472537676525     
  0.16912500000000003         0.24900273903281300     
  0.16949999999999998         0.31929631037417255     
  0.16987500000000000         0.37768993006970780     
  0.17025000000000001         0.41920434704948484     
  0.17062500000000003         0.43986891642070569     
  0.17099999999999999         0.43737951953915322     
  0.17137500000000000         0.41115447022929114     
  0.17175000000000001         0.36252238700356260     
  0.17212500000000003         0.29449609051402614     
  0.17249999999999999         0.21140092601714588     
  0.17287500000000000         0.11830428370389529     
  0.17325000000000002          2.0704038776087556E-002
  0.17362500000000003         -7.6305446723400686E-002
  0.17399999999999999        -0.16826332737115490     
  0.17437500000000000        -0.25171522470124053     
  0.17475000000000002        -0.32439229755800025     
  0.17512500000000003        -0.38514462725153309     
  0.17549999999999999        -0.43385657728564542     
  0.17587500000000000        -0.47114201843760928     
  0.17625000000000002        -0.49812805753388756     
  0.17662500000000003        -0.51598666031592377     
  0.17699999999999999        -0.52574359258573389     
  0.17737500000000000        -0.52798601360853725     
  0.17775000000000002        -0.52254891568453121     
  0.17812500000000003        -0.50854885487744128     
  0.17849999999999999        -0.48428920112036300     
  0.17887500000000001        -0.44742243566568207     
  0.17925000000000002        -0.39523038407960559     
  0.17962500000000003        -0.32496722806478529     
  0.17999999999999999        -0.23443678922846611     
  0.18037500000000001        -0.12246244560713004     
  0.18075000000000002          1.0485325439434021E-002
  0.18112500000000004         0.16181525212341108     
  0.18149999999999999         0.32672598735996700     
  0.18187500000000001         0.49789707298034791     
  0.18225000000000002         0.66596175083686782     
  0.18262500000000004         0.82010838484017701     
  0.18300000000000000         0.94880264068119136     
  0.18337500000000001          1.0411229303674501     
  0.18375000000000002          1.0876937074082609     
  0.18412499999999998          1.0818592171857877     
  0.18450000000000000          1.0205873458474506     
  0.18487500000000001         0.90500638874997863     
  0.18525000000000003         0.74041239746059651     
  0.18562499999999998         0.53604230758666782     
  0.18600000000000000         0.30426176513597758     
  0.18637500000000001          5.9429719286716448E-002
  0.18675000000000003        -0.18313510205019545     
  0.18712499999999999        -0.40876145623280496     
  0.18750000000000000        -0.60422633203898080     
  0.18787500000000001        -0.75900997590123143     
  0.18825000000000003        -0.86563932285496303     
  0.18862499999999999        -0.92018511424235561     
  0.18900000000000000        -0.92223617409679348     