  -1.4999999999999999E-002     0.0000000000000000     
  -1.4624999999999999E-002     0.0000000000000000     
  -1.4249999999999999E-002     0.0000000000000000     
  -1.3874999999999998E-002     0.0000000000000000     
  -1.3500000000000000E-002     0.0000000000000000     
  -1.3125000000000000E-002     0.0000000000000000     
  -1.2749999999999999E-002     0.0000000000000000     
  -1.2374999999999999E-002     0.0000000000000000     
  -1.2000000000000000E-002     0.0000000000000000     
  -1.1625000000000000E-002     0.0000000000000000     
  -1.1250000000000000E-002     0.0000000000000000     
  -1.0874999999999999E-002     0.0000000000000000     
  -1.0499999999999999E-002     0.0000000000000000     
  -1.0124999999999999E-002     0.0000000000000000     
  -9.7499999999999983E-003     0.0000000000000000     
  -9.3749999999999979E-003     0.0000000000000000     
  -8.9999999999999993E-003     0.0000000000000000     
  -8.6249999999999990E-003     0.0000000000000000     
  -8.2500000000000004E-003     0.0000000000000000     
  -7.8750000000000001E-003     0.0000000000000000     
  -7.4999999999999989E-003     0.0000000000000000     
  -7.1249999999999994E-003     0.0000000000000000     
  -6.7499999999999991E-003     0.0000000000000000     
  -6.3749999999999987E-003     0.0000000000000000     
  -5.9999999999999984E-003     0.0000000000000000     
  -5.6249999999999998E-003     0.0000000000000000     
  -5.2499999999999995E-003     0.0000000000000000     
  -4.8749999999999991E-003     0.0000000000000000     
  -4.4999999999999988E-003     0.0000000000000000     
  -4.1249999999999985E-003     0.0000000000000000     
  -3.7499999999999981E-003     0.0000000000000000     
  -3.3749999999999995E-003     0.0000000000000000     
  -2.9999999999999992E-003     0.0000000000000000     
  -2.6249999999999989E-003     0.0000000000000000     
  -2.2499999999999985E-003     0.0000000000000000     
  -1.8749999999999982E-003     0.0000000000000000     
  -1.4999999999999996E-003     0.0000000000000000     
  -1.1249999999999993E-003     0.0000000000000000     
  -7.4999999999999893E-004     0.0000000000000000     
  -3.7499999999999860E-004     0.0000000000000000     
   1.7347234759768071E-018     0.0000000000000000     
   3.7500000000000207E-004     0.0000000000000000     
   7.5000000000000067E-004     0.0000000000000000     
   1.1250000000000010E-003     0.0000000000000000     
   1.5000000000000013E-003     0.0000000000000000     
   1.8750000000000017E-003     0.0000000000000000     
   2.2500000000000020E-003     0.0000000000000000     
   2.6250000000000023E-003     0.0000000000000000     
   3.0000000000000027E-003     0.0000000000000000     
   3.3750000000000030E-003     0.0000000000000000     
   3.7499999999999999E-003     0.0000000000000000     
   4.1250000000000002E-003     0.0000000000000000     
   4.5000000000000005E-003     0.0000000000000000     
   4.8750000000000009E-003     0.0000000000000000     
   5.2500000000000012E-003     0.0000000000000000     
   5.6250000000000015E-003     0.0000000000000000     
   6.0000000000000019E-003     0.0000000000000000     
   6.3750000000000022E-003     0.0000000000000000     
   6.7500000000000025E-003     0.0000000000000000     
   7.1250000000000029E-003     0.0000000000000000     
   7.5000000000000032E-003     0.0000000000000000     
   7.8750000000000001E-003     0.0000000000000000     
   8.2500000000000004E-003    -2.2108184436913583E-054
   8.6250000000000007E-003    -1.4048971895672446E-051
   9.0000000000000011E-003     1.5321847000214426E-037
   9.3750000000000014E-003    -3.4165406363523541E-035
   9.7500000000000017E-003    -3.5977122555489581E-034
   1.0125000000000002E-002    -2.3632409951553151E-033
   1.0500000000000002E-002     4.8326570639114759E-032
   1.0875000000000003E-002     3.4270702599849428E-031
   1.1250000000000003E-002    -1.4853649042613347E-030
   1.1625000000000003E-002    -1.1521450921498851E-029
   1.2000000000000000E-002     7.4392095258159042E-029
   1.2375000000000001E-002    -1.5945621576538034E-030
   1.2750000000000001E-002    -1.6255812746730332E-027
   1.3125000000000001E-002     9.5723667892005176E-027
   1.3500000000000002E-002    -3.6063128972205471E-026
   1.3875000000000002E-002     1.0830340362688785E-025
   1.4250000000000002E-002    -3.2653125199462207E-025
   1.4625000000000003E-002     3.4617013669355043E-024
   1.5000000000000003E-002     9.8742644155170521E-024
   1.5375000000000003E-002     4.0978916962770663E-023
   1.5750000000000004E-002     1.5170526018291773E-022
   1.6125000000000000E-002     5.7229928191983006E-022
   1.6500000000000001E-002     2.1055190346267693E-021
   1.6875000000000001E-002     7.6130013453085077E-021
   1.7250000000000001E-002     2.7025849709201806E-020
   1.7625000000000002E-002     9.4194923269265641E-020
   1.8000000000000002E-002     3.2233990417688503E-019
   1.8375000000000002E-002     1.0829817058766588E-018
   1.8750000000000003E-002     3.5722883474066786E-018
   1.9125000000000003E-002     1.1568597059705887E-017
   1.9500000000000003E-002     3.6780150627568341E-017
   1.9875000000000004E-002     1.1479908934519080E-016
   2.0250000000000004E-002     3.5175817297586294E-016
   2.0625000000000004E-002     1.0580876686785215E-015
   2.1000000000000005E-002     3.1243747640171080E-015
   2.1375000000000005E-002     9.0563138311105007E-015
   2.1750000000000005E-002     2.5767892228775340E-014
   2.2125000000000006E-002     7.1967203691595732E-014
   2.2499999999999999E-002     1.9728831599566352E-013
   2.2875000000000000E-002     5.3084527992953329E-013
   2.3250000000000000E-002     1.4019019051018664E-012
   2.3625000000000000E-002     3.6336018570448005E-012
   2.4000000000000000E-002     9.2428935706798029E-012
   2.4375000000000001E-002     2.3073453372273504E-011
   2.4750000000000001E-002     5.6523956435182950E-011
   2.5125000000000001E-002     1.3587696059001977E-010
   2.5500000000000002E-002     3.2050604690397722E-010
   2.5875000000000002E-002     7.4177392505189237E-010
   2.6250000000000002E-002     1.6843557670867672E-009
   2.6625000000000003E-002     3.7522709301686697E-009
   2.7000000000000003E-002     8.2002349176362395E-009
   2.7375000000000003E-002     1.7578933898039356E-008
   2.7750000000000004E-002     3.6962947658210991E-008
   2.8125000000000004E-002     7.6227268634752413E-008
   2.8500000000000004E-002     1.5416335224605366E-007
   2.8875000000000005E-002     3.0572963362025376E-007
   2.9250000000000005E-002     5.9447996148012689E-007
   2.9625000000000005E-002     1.1332453687027682E-006
   3.0000000000000006E-002     2.1176089674025087E-006
   3.0375000000000006E-002     3.8782610260251853E-006
   3.0750000000000000E-002     6.9603589910560917E-006
   3.1125000000000000E-002     1.2239340660588135E-005
   3.1500000000000000E-002     2.1082880057529773E-005
   3.1875000000000001E-002     3.5567521975351471E-005
   3.2250000000000001E-002     5.8752790417149656E-005
   3.2625000000000001E-002     9.5001281529916059E-005
   3.3000000000000002E-002     1.5032696677424662E-004
   3.3375000000000002E-002     2.3269349218396052E-004
   3.3750000000000002E-002     3.5221890992486252E-004
   3.4125000000000003E-002     5.2108412651508584E-004
   3.4500000000000003E-002     7.5309354542670828E-004
   3.4875000000000003E-002     1.0625588449681607E-003
   3.5250000000000004E-002     1.4625247736800601E-003
   3.5625000000000004E-002     1.9620183939110638E-003
   3.6000000000000004E-002     2.5625311452603977E-003
   3.6375000000000005E-002     3.2540849091158507E-003
   3.6750000000000005E-002     4.0107311433001851E-003
   3.7125000000000005E-002     4.7873725038481722E-003
   3.7500000000000006E-002     5.5176568786284600E-003
   3.7875000000000006E-002     6.1159528815190566E-003
   3.8250000000000006E-002     6.4801569261717252E-003
   3.8625000000000007E-002     6.5057982177871765E-003
   3.9000000000000000E-002     6.0942511522222471E-003
   3.9375000000000000E-002     5.1763209048976376E-003
   3.9750000000000001E-002     3.7263497604337749E-003
   4.0125000000000001E-002     1.7818095839171027E-003
   4.0500000000000001E-002    -5.4751973429124966E-004
   4.0875000000000002E-002    -3.0798669358254719E-003
   4.1250000000000002E-002    -5.5731000008390520E-003
   4.1625000000000002E-002    -7.7543958938207031E-003
   4.2000000000000003E-002    -9.3608770522773093E-003
   4.2375000000000003E-002    -1.0184974211757652E-002
   4.2750000000000003E-002    -1.0132026975658352E-002
   4.3125000000000004E-002    -9.2518228960759025E-003
   4.3500000000000004E-002    -7.7708054232355078E-003
   4.3875000000000004E-002    -6.0809018292604386E-003
   4.4250000000000005E-002    -4.7053728998596124E-003
   4.4625000000000005E-002    -4.2453887077998102E-003
   4.5000000000000005E-002    -5.2713327392684113E-003
   4.5375000000000006E-002    -8.2462626151167014E-003
   4.5750000000000006E-002    -1.3415653325710795E-002
   4.6125000000000006E-002    -2.0745089299650361E-002
   4.6500000000000007E-002    -2.9875332511852183E-002
   4.6875000000000007E-002    -4.0140651486234157E-002
   4.7250000000000000E-002    -5.0602578050208909E-002
   4.7625000000000001E-002    -6.0178991222721225E-002
   4.8000000000000001E-002    -6.7731029960994865E-002
   4.8375000000000001E-002    -7.2222091599652760E-002
   4.8750000000000002E-002    -7.2832623089986948E-002
   4.9125000000000002E-002    -6.9045026764626108E-002
   4.9500000000000002E-002    -6.0726516169577527E-002
   4.9875000000000003E-002    -4.8092110585048323E-002
   5.0250000000000003E-002    -3.1699845656099006E-002
   5.0625000000000003E-002    -1.2362258886982938E-002
   5.1000000000000004E-002     8.9608963759493995E-003
   5.1375000000000004E-002     3.1271494055622212E-002
   5.1750000000000004E-002     5.3601209813462912E-002
   5.2125000000000005E-002     7.5125070047133355E-002
   5.2500000000000005E-002     9.5170137890672746E-002
   5.2875000000000005E-002    0.11321700325249831     
   5.3250000000000006E-002    0.12890238579980506     
   5.3625000000000006E-002    0.14193331805705481     
   5.4000000000000006E-002    0.15205664691973134     
   5.4375000000000007E-002    0.15898838913998820     
   5.4750000000000007E-002    0.16240205780356284     
   5.5125000000000007E-002    0.16190309214715093     
   5.5500000000000008E-002    0.15706921265831833     
   5.5875000000000008E-002    0.14751833554957627     
   5.6250000000000008E-002    0.13297681518360263     
   5.6625000000000009E-002    0.11337278868558744     
   5.7000000000000009E-002     8.8929991734516600E-002
   5.7375000000000009E-002     6.0220870758995668E-002
   5.7750000000000010E-002     2.8155511746630606E-002
   5.8125000000000010E-002    -5.9998389826063257E-003
   5.8500000000000010E-002    -4.0753735812470708E-002
   5.8875000000000011E-002    -7.4481992370344988E-002
   5.9250000000000011E-002   -0.10556487477660789     
   5.9624999999999997E-002   -0.13256716016798767     
   5.9999999999999998E-002   -0.15431622554789601     
   6.0374999999999998E-002   -0.17004092625690465     
   6.0749999999999998E-002   -0.17934821690742778     
   6.1124999999999999E-002   -0.18228790085628110     
   6.1499999999999999E-002   -0.17922315942619385     
   6.1874999999999999E-002   -0.17076442061326777     
   6.2250000000000000E-002   -0.15768107499793163     
   6.2625000000000000E-002   -0.14076305475434325     
   6.3000000000000000E-002   -0.12078265354886446     
   6.3375000000000001E-002    -9.8405406676660728E-002
   6.3750000000000001E-002    -7.4237562858782274E-002
   6.4125000000000001E-002    -4.8789895817536545E-002
   6.4500000000000002E-002    -2.2610700327198901E-002
   6.4875000000000002E-002     3.7156788781032468E-003
   6.5250000000000002E-002     2.9474538605707763E-002
   6.5625000000000003E-002     5.3793719054774550E-002
   6.6000000000000003E-002     7.5612759030777729E-002
   6.6375000000000003E-002     9.3769297310398542E-002
   6.6750000000000004E-002    0.10702680661114178     
   6.7125000000000004E-002    0.11418666141508414     
   6.7500000000000004E-002    0.11428594177224977     
   6.7875000000000005E-002    0.10663656861363117     
   6.8250000000000005E-002     9.1037515828216967E-002
   6.8625000000000005E-002     6.7875229055952419E-002
   6.9000000000000006E-002     3.8116511144181284E-002
   6.9375000000000006E-002     3.3956810600600522E-003
   6.9750000000000006E-002    -3.4082062867083311E-002
   7.0125000000000007E-002    -7.1677626910540471E-002
   7.0500000000000007E-002   -0.10646082088050864     
   7.0875000000000007E-002   -0.13549006073362457     
   7.1250000000000008E-002   -0.15605952437730872     
   7.1625000000000008E-002   -0.16596930389891390     
   7.2000000000000008E-002   -0.16383157620463221     
   7.2375000000000009E-002   -0.14919501632820004     
   7.2750000000000009E-002   -0.12276112916465867     
   7.3125000000000009E-002    -8.6319032956938185E-002
   7.3500000000000010E-002    -4.2659405206658958E-002
   7.3875000000000010E-002     4.6636294975594527E-003
   7.4250000000000010E-002     5.1720227978381279E-002
   7.4625000000000011E-002     9.4558273812770946E-002
   7.5000000000000011E-002    0.12975418491707513     
   7.5375000000000011E-002    0.15468929493090233     
   7.5750000000000012E-002    0.16791454102980205     
   7.6124999999999998E-002    0.16928787543546678     
   7.6499999999999999E-002    0.15992471240659489     
   7.6874999999999999E-002    0.14199832049188968     
   7.7249999999999999E-002    0.11839993445648826     
   7.7625000000000000E-002     9.2339645439286966E-002
   7.8000000000000000E-002     6.6806177128942323E-002
   7.8375000000000000E-002     4.4315333339299240E-002
   7.8750000000000001E-002     2.6458681617012977E-002
   7.9125000000000001E-002     1.3937150655593134E-002
   7.9500000000000001E-002     6.4881710911716016E-003
   7.9875000000000002E-002     3.0784380552529738E-003
   8.0250000000000002E-002     2.3051756622072721E-003
   8.0625000000000002E-002     2.5266440445439117E-003
   8.1000000000000003E-002     2.4506985920125877E-003
   8.1375000000000003E-002     1.1336097745014927E-003
   8.1750000000000003E-002    -1.6547967852378839E-003
   8.2125000000000004E-002    -5.5847760538754220E-003
   8.2500000000000004E-002    -9.7987868637001568E-003
   8.2875000000000004E-002    -1.3106680483686911E-002
   8.3250000000000005E-002    -1.4427369987851501E-002
   8.3625000000000005E-002    -1.2871959840076908E-002
   8.4000000000000005E-002    -8.2222519052554729E-003
   8.4375000000000006E-002    -8.7211012947546935E-004
   8.4750000000000006E-002     7.9744074380315045E-003
   8.5125000000000006E-002     1.6514678143858756E-002
   8.5500000000000007E-002     2.2647348548565840E-002
   8.5875000000000007E-002     2.4233452245565414E-002
   8.6250000000000007E-002     1.9653901675302288E-002
   8.6625000000000008E-002     8.0478020813025113E-003
   8.7000000000000008E-002    -1.0261603770095917E-002
   8.7375000000000008E-002    -3.3774713477992935E-002
   8.7750000000000009E-002    -5.9819146075511823E-002
   8.8125000000000009E-002    -8.4911155598699342E-002
   8.8500000000000009E-002   -0.10516956132084786     
   8.8875000000000010E-002   -0.11698580388201292     
   8.9250000000000010E-002   -0.11754383619833306     
   8.9625000000000010E-002   -0.10526081696752955     
   9.0000000000000011E-002    -8.0380908316817337E-002
   9.0375000000000011E-002    -4.4641537032449760E-002
   9.0750000000000011E-002    -1.5025231229760219E-003
   9.1125000000000012E-002     4.4518270140424240E-002
   9.1500000000000012E-002     8.8345914127701083E-002
   9.1875000000000012E-002    0.12494826664971466     
   9.2250000000000013E-002    0.15015212711291986     
   9.2624999999999999E-002    0.16089157281311572     
   9.2999999999999999E-002    0.15592374145285920     
   9.3375000000000000E-002    0.13552225920866978     
   9.3750000000000000E-002    0.10172715734587881     
   9.4125000000000000E-002     5.7830469209812316E-002
   9.4500000000000001E-002     7.9656287781066544E-003
   9.4875000000000001E-002    -4.3342840900689975E-002
   9.5250000000000001E-002    -9.1798949123790899E-002
   9.5625000000000002E-002   -0.13357745048375885     
   9.6000000000000002E-002   -0.16585775425090579     
   9.6375000000000002E-002   -0.18671686788831476     
   9.6750000000000003E-002   -0.19541073107739096     
   9.7125000000000003E-002   -0.19206526472339938     
   9.7500000000000003E-002   -0.17767785183870216     
   9.7875000000000004E-002   -0.15388676864193265     
   9.8250000000000004E-002   -0.12280554252598641     
   9.8625000000000004E-002    -8.7008089929799609E-002
   9.9000000000000005E-002    -4.9187056761591658E-002
   9.9375000000000005E-002    -1.2386463217929631E-002
   9.9750000000000005E-002     2.0414013860122277E-002
  0.10012500000000001          4.6378809993998522E-002
  0.10050000000000001          6.3019550086611448E-002
  0.10087500000000001          6.8686585788059445E-002
  0.10125000000000001          6.2720683026846247E-002
  0.10162500000000001          4.5884748944090933E-002
  0.10200000000000001          2.0476765463898657E-002
  0.10237500000000001         -9.7474635814698840E-003
  0.10275000000000001         -3.9754612005579185E-002
  0.10312500000000001         -6.3856697435460796E-002
  0.10350000000000001         -7.6281904768597683E-002
  0.10387500000000001         -7.2092446934526336E-002
  0.10425000000000001         -4.7883730880812665E-002
  0.10462500000000001         -2.5124043048832759E-003
  0.10500000000000001          6.2663516412658854E-002
  0.10537500000000001         0.14351465356453413     
  0.10575000000000001         0.23371834497820138     
  0.10612500000000001         0.32509832867391542     
  0.10650000000000001         0.40870141455134590     
  0.10687500000000001         0.47573712157614945     
  0.10725000000000001         0.51851616333142947     
  0.10762500000000001         0.53141138120870746     
  0.10800000000000001         0.51133370974848946     
  0.10837500000000001         0.45821727931828987     
  0.10875000000000001         0.37475180252906604     
  0.10912500000000000         0.26620061891198715     
  0.10950000000000000         0.13969377900280217     
  0.10987500000000000          3.4120214080889692E-003
  0.11025000000000000        -0.13417105581722935     
  0.11062500000000001        -0.26520379387119464     
  0.11100000000000000        -0.38292645595015640     
  0.11137500000000002        -0.48241461343879610     
  0.11175000000000000        -0.56046410908675393     
  0.11212500000000002        -0.61575374434611618     
  0.11250000000000000        -0.64871986864689568     
  0.11287500000000002        -0.66090971162392564     
  0.11325000000000000        -0.65491067471831854     
  0.11362500000000002        -0.63364688398731361     
  0.11400000000000000        -0.60011551928506968     
  0.11437500000000002        -0.55702411414846420     
  0.11475000000000000        -0.50655444892738200     
  0.11512500000000002        -0.45018196869583610     
  0.11550000000000001        -0.38864830301969433     
  0.11587500000000002        -0.32197089164565329     
  0.11625000000000001        -0.24942707478751147     
  0.11662500000000002        -0.16990251018457486     
  0.11700000000000001         -8.1798007065512726E-002
  0.11737499999999999          1.6264796671629389E-002
  0.11775000000000001         0.12551990904178079     
  0.11812499999999999         0.24634872258443960     
  0.11850000000000001         0.37788841118822430     
  0.11887499999999999         0.51777309985777964     
  0.11925000000000001         0.66152213781585556     
  0.11962500000000000         0.80257748945511509     
  0.12000000000000001         0.93238232852310510     
  0.12037500000000000          1.0404745426402429     
  0.12075000000000001          1.1156114572913753     
  0.12112500000000000          1.1464031067482443     
  0.12150000000000001          1.1230197953799144     
  0.12187500000000000          1.0382679971174889     
  0.12225000000000001         0.88926159238396707     
  0.12262500000000000         0.67834156808994661     
  0.12300000000000001         0.41394363432111353     
  0.12337500000000000         0.11045543040918621     
  0.12375000000000001        -0.21241179547998104     
  0.12412500000000000        -0.53111773191958866     
  0.12450000000000001        -0.82016413796968668     
  0.12487500000000000         -1.0550736431528951     
  0.12525000000000003         -1.2145937044443642     
  0.12562499999999999         -1.2834134729470470     
  0.12600000000000000         -1.2542686779678021     
  0.12637500000000002         -1.1287818762079354     
  0.12675000000000003        -0.91804747625683736     
  0.12712499999999999        -0.64159953642369094     
  0.12750000000000000        -0.32546363794003996     
  0.12787500000000002          1.9191249847891854E-004
  0.12825000000000003         0.30471989191370896     
  0.12862499999999999         0.55966526720986431     
  0.12900000000000000         0.74228414947748145     
  0.12937500000000002         0.83777320620985141     
  0.12975000000000003         0.84055210326393359     
  0.13012499999999999         0.75495652771716915     
  0.13050000000000000         0.59421325115553103     
  0.13087500000000002         0.37864495473524584     
  0.13125000000000003         0.13346559844414541     
  0.13162499999999999        -0.11477825300477745     
  0.13200000000000001        -0.34085822291253370     
  0.13237500000000002        -0.52366968807998227     
  0.13275000000000003        -0.64852350788651525     
  0.13312499999999999        -0.70810187468156149     
  0.13350000000000001        -0.70254844537654304     
  0.13387500000000002        -0.63909876746523919     
  0.13424999999999998        -0.52997081682738600     
  0.13462499999999999        -0.39064631294871510     
  0.13500000000000001        -0.23753574113702472     
  0.13537500000000002         -8.5895288762077332E-002
  0.13574999999999998          5.1802304881122647E-002
  0.13612500000000000         0.16688028502578556     
  0.13650000000000001         0.25456817107090118     
  0.13687500000000002         0.31392874316794356     
  0.13724999999999998         0.34691852983178595     
  0.13762500000000000         0.35727951315022094     
  0.13800000000000001         0.34949929939734370     
  0.13837500000000003         0.32821711697493094     
  0.13874999999999998         0.29717937389460308     
  0.13912500000000000         0.25935611648252255     
  0.13950000000000001         0.21704639941312948     
  0.13987500000000003         0.17199209332858889     
  0.14024999999999999         0.12591622376974285     
  0.14062500000000000          8.0727284987837322E-002
  0.14100000000000001          3.8486773623965985E-002
  0.14137500000000003          1.7217267616552929E-003
  0.14174999999999999         -2.7289054971299277E-002
  0.14212500000000000         -4.6782453427515518E-002
  0.14250000000000002         -5.5682477410015162E-002
  0.14287500000000003         -5.4200084113315547E-002
  0.14324999999999999         -4.3739495163426602E-002
  0.14362500000000000         -2.6866989759616784E-002
  0.14400000000000002         -6.9822067175160825E-003
  0.14437500000000003          1.2343554983286915E-002
  0.14474999999999999          2.7705125109493536E-002
  0.14512500000000000          3.6660960801366917E-002
  0.14550000000000002          3.7864317073740744E-002
  0.14587500000000003          3.1352212088205114E-002
  0.14624999999999999          1.8724599763636485E-002
  0.14662500000000001          2.2147760343157476E-003
  0.14700000000000002         -1.5139522653685605E-002
  0.14737500000000003         -3.0457585417243721E-002
  0.14774999999999999         -4.1432278131156658E-002
  0.14812500000000001         -4.6429386689566442E-002
  0.14850000000000002         -4.5371853318741828E-002
  0.14887500000000004         -3.8915625228936886E-002
  0.14924999999999999         -2.8656186414200365E-002
  0.14962500000000001         -1.6785913538938387E-002
  0.15000000000000002         -5.4425359175942906E-003
  0.15037499999999998          3.4081774249959274E-003
  0.15075000000000000          8.6006330163074310E-003
  0.15112500000000001          9.4648601512794216E-003
  0.15150000000000002          6.1392645097514773E-003
  0.15187499999999998         -6.4695901301783064E-004
  0.15225000000000000         -9.9951417850030529E-003
  0.15262500000000001         -2.0834492418020087E-002
  0.15300000000000002         -3.2072729895810864E-002
  0.15337499999999998         -4.3116040798314846E-002
  0.15375000000000000         -5.3372960087855630E-002
  0.15412500000000001         -6.2287750853733295E-002
  0.15450000000000003         -6.9576381235685172E-002
  0.15487499999999998         -7.4629992711123111E-002
  0.15525000000000000         -7.6847559477472183E-002
  0.15562500000000001         -7.5427909966771164E-002
  0.15600000000000003         -6.9922225082589343E-002
  0.15637499999999999         -6.0060033440600416E-002
  0.15675000000000000         -4.6308125118805991E-002
  0.15712500000000001         -3.0118458366310136E-002
  0.15750000000000003         -1.3411919403570959E-002
  0.15787499999999999          1.1713531686902558E-003
  0.15825000000000000          1.1130012286921355E-002
  0.15862500000000002          1.4836240366131653E-002
  0.15900000000000003          1.2239743543520396E-002
  0.15937499999999999          5.2822040232449246E-003
  0.15975000000000000         -1.8716932546847134E-003
  0.16012500000000002         -3.5144697717066548E-003
  0.16050000000000003          6.2829948991994095E-003
  0.16087499999999999          3.2180805570778147E-002
  0.16125000000000000          7.5425912568120493E-002
  0.16162500000000002         0.13252039169442603     
  0.16200000000000003         0.19439697628229835     
  0.16237499999999999         0.24728199169910567     
  0.16275000000000001         0.27418295419483740     
  0.16312500000000002         0.25875150902521193     
  0.16350000000000003         0.18892917425553984     
  0.16387499999999999          6.0743550190121426E-002
  0.16425000000000001        -0.11840393784595112     
  0.16462500000000002        -0.32923721423436408     
  0.16500000000000004        -0.54174186209435060     
  0.16537499999999999        -0.71905793268726681     
  0.16575000000000001        -0.82343596227326932     
  0.16612500000000002        -0.82316115014759705     
  0.16650000000000004        -0.69915460762706505     
  0.16687500000000000        -0.44980189138304738     
  0.16725000000000001         -9.3499715161131161E-002
  0.16762500000000002         0.33226336467882278     
  0.16799999999999998         0.77571454013386154     
  0.16837500000000000          1.1772432460319291     
  0.16875000000000001          1.4785188274422483     
  0.16912500000000003          1.6310796231653588     
  0.16949999999999998          1.6035330317269560     
  0.16987500000000000          1.3871457819523640     
  0.17025000000000001         0.99704975124530049     
  0.17062500000000003         0.47065400056979134     
  0.17099999999999999        -0.13684682032005596     
  0.17137500000000000        -0.75997720729808460     
  0.17175000000000001         -1.3305152902317154     
  0.17212500000000003         -1.7863493193168283     
  0.17249999999999999         -2.0781654431483605     
  0.17287500000000000         -2.1745576750590145     
  0.17325000000000002         -2.0653281254478872     
  0.17362500000000003         -1.7611756376673209     
  0.17399999999999999         -1.2916796956317813     
  0.17437500000000000        -0.70188753505442047     
  0.17475000000000002         -4.6133950598979595E-002
  0.17512500000000003         0.61705064819569799     
  0.17549999999999999          1.2309947435262598     
  0.17587500000000000          1.7456757302424402     
  0.17625000000000002          2.1218882325794315     
  0.17662500000000003          2.3337134279744900     
  0.17699999999999999          2.3695008768558155     
  0.17737500000000000          2.2319163082648381     
  0.17775000000000002          1.9366638866867878     
  0.17812500000000003          1.5097670555505815     
  0.17849999999999999         0.98553255980419308     
  0.17887500000000001         0.40298976456308078     
  0.17925000000000002        -0.19738667408479738     
  0.17962500000000003        -0.77612103520467512     
  0.17999999999999999         -1.2973789779827087     
  0.18037500000000001         -1.7314545384491236     
  0.18075000000000002         -2.0554414801290939     
  0.18112500000000004         -2.2548500218814507     
  0.18149999999999999         -2.3231452834624267     
  0.18187500000000001         -2.2620979221301751     
  0.18225000000000002         -2.0803384832853582     
  0.18262500000000004         -1.7931272443831483     
  0.18300000000000000         -1.4203709220430509     
  0.18337500000000001        -0.98513795891841927     
  0.18375000000000002        -0.51281234821876842     
  0.18412499999999998         -2.9022453620565776E-002
  0.18450000000000000         0.44160895175744341     
  0.18487500000000001         0.87643413344310805     
  0.18525000000000003          1.2559136288881012     
  0.18562499999999998          1.5645055555830059     
  0.18600000000000000          1.7907182106421344     
  0.18637500000000001          1.9278742736776944     
  0.18675000000000003          1.9738620925190700     
  0.18712499999999999          1.9305990517075249     
  0.18750000000000000          1.8042982690408118     
  0.18787500000000001          1.6041390851250519     
  0.18825000000000003          1.3423629055449999     
  0.18862499999999999          1.0328381080982372     
  0.18900000000000000         0.69093794536610031     