  -1.4999999999999999E-002     0.0000000000000000     
  -1.4624999999999999E-002     0.0000000000000000     
  -1.4249999999999999E-002     0.0000000000000000     
  -1.3874999999999998E-002     0.0000000000000000     
  -1.3500000000000000E-002     0.0000000000000000     
  -1.3125000000000000E-002     0.0000000000000000     
  -1.2749999999999999E-002     0.0000000000000000     
  -1.2374999999999999E-002     0.0000000000000000     
  -1.2000000000000000E-002     0.0000000000000000     
  -1.1625000000000000E-002     0.0000000000000000     
  -1.1250000000000000E-002     0.0000000000000000     
  -1.0874999999999999E-002     0.0000000000000000     
  -1.0499999999999999E-002     0.0000000000000000     
  -1.0124999999999999E-002     0.0000000000000000     
  -9.7499999999999983E-003     0.0000000000000000     
  -9.3749999999999979E-003     0.0000000000000000     
  -8.9999999999999993E-003     0.0000000000000000     
  -8.6249999999999990E-003     0.0000000000000000     
  -8.2500000000000004E-003     0.0000000000000000     
  -7.8750000000000001E-003     0.0000000000000000     
  -7.4999999999999989E-003     0.0000000000000000     
  -7.1249999999999994E-003     0.0000000000000000     
  -6.7499999999999991E-003     0.0000000000000000     
  -6.3749999999999987E-003     0.0000000000000000     
  -5.9999999999999984E-003     0.0000000000000000     
  -5.6249999999999998E-003     0.0000000000000000     
  -5.2499999999999995E-003     0.0000000000000000     
  -4.8749999999999991E-003     0.0000000000000000     
  -4.4999999999999988E-003     0.0000000000000000     
  -4.1249999999999985E-003     0.0000000000000000     
  -3.7499999999999981E-003     0.0000000000000000     
  -3.3749999999999995E-003     0.0000000000000000     
  -2.9999999999999992E-003     0.0000000000000000     
  -2.6249999999999989E-003     0.0000000000000000     
  -2.2499999999999985E-003     0.0000000000000000     
  -1.8749999999999982E-003     0.0000000000000000     
  -1.4999999999999996E-003     0.0000000000000000     
  -1.1249999999999993E-003     0.0000000000000000     
  -7.4999999999999893E-004     0.0000000000000000     
  -3.7499999999999860E-004     0.0000000000000000     
   1.7347234759768071E-018     0.0000000000000000     
   3.7500000000000207E-004     0.0000000000000000     
   7.5000000000000067E-004     0.0000000000000000     
   1.1250000000000010E-003     0.0000000000000000     
   1.5000000000000013E-003     0.0000000000000000     
   1.8750000000000017E-003     0.0000000000000000     
   2.2500000000000020E-003     0.0000000000000000     
   2.6250000000000023E-003     0.0000000000000000     
   3.0000000000000027E-003     0.0000000000000000     
   3.3750000000000030E-003     0.0000000000000000     
   3.7499999999999999E-003     0.0000000000000000     
   4.1250000000000002E-003     0.0000000000000000     
   4.5000000000000005E-003     0.0000000000000000     
   4.8750000000000009E-003     0.0000000000000000     
   5.2500000000000012E-003     0.0000000000000000     
   5.6250000000000015E-003     0.0000000000000000     
   6.0000000000000019E-003     0.0000000000000000     
   6.3750000000000022E-003     0.0000000000000000     
   6.7500000000000025E-003     0.0000000000000000     
   7.1250000000000029E-003     0.0000000000000000     
   7.5000000000000032E-003     0.0000000000000000     
   7.8750000000000001E-003     0.0000000000000000     
   8.2500000000000004E-003     0.0000000000000000     
   8.6250000000000007E-003     0.0000000000000000     
   9.0000000000000011E-003     0.0000000000000000     
   9.3750000000000014E-003    -1.0861250769322194E-052
   9.7500000000000017E-003     2.7707790632369677E-050
   1.0125000000000002E-002     7.4031653264026345E-038
   1.0500000000000002E-002    -4.9394994194238171E-035
   1.0875000000000003E-002    -6.1131711733474841E-034
   1.1250000000000003E-002    -5.7914064365930845E-033
   1.1625000000000003E-002     1.6958637959773461E-032
   1.2000000000000000E-002     4.2566715129108206E-031
   1.2375000000000001E-002    -1.5310097470416275E-031
   1.2750000000000001E-002    -1.5127488856608710E-029
   1.3125000000000001E-002     4.6537789039588150E-029
   1.3500000000000002E-002     1.9337433859779954E-028
   1.3875000000000002E-002    -2.0422397766912103E-027
   1.4250000000000002E-002     8.7373046381058926E-027
   1.4625000000000003E-002    -2.6274645062965955E-026
   1.5000000000000003E-002     6.3384690638692763E-026
   1.5375000000000003E-002    -1.5817363290189794E-025
   1.5750000000000004E-002     3.5119321957009956E-024
   1.6125000000000000E-002     1.0500860849766750E-023
   1.6500000000000001E-002     4.2671675130584396E-023
   1.6875000000000001E-002     1.5887058938676822E-022
   1.7250000000000001E-002     5.9734700104070134E-022
   1.7625000000000002E-002     2.1951267747608462E-021
   1.8000000000000002E-002     7.9229777185012967E-021
   1.8375000000000002E-002     2.8080532068348687E-020
   1.8750000000000003E-002     9.7709191987830133E-020
   1.9125000000000003E-002     3.3381630682538097E-019
   1.9500000000000003E-002     1.1196958933859582E-018
   1.9875000000000004E-002     3.6873194035289582E-018
   2.0250000000000004E-002     1.1921509339538722E-017
   2.0625000000000004E-002     3.7840125047670067E-017
   2.1000000000000005E-002     1.1791363100547051E-016
   2.1375000000000005E-002     3.6071251901965237E-016
   2.1750000000000005E-002     1.0832449190751453E-015
   2.2125000000000006E-002     3.1934309579625941E-015
   2.2499999999999999E-002     9.2414048604690075E-015
   2.2875000000000000E-002     2.6251696849924870E-014
   2.3250000000000000E-002     7.3199061755045371E-014
   2.3625000000000000E-002     2.0033867279333552E-013
   2.4000000000000000E-002     5.3817872973109496E-013
   2.4375000000000001E-002     1.4189657459585132E-012
   2.4750000000000001E-002     3.6718692197174769E-012
   2.5125000000000001E-002     9.3251108311740754E-012
   2.5500000000000002E-002     2.3241126087458458E-011
   2.5875000000000002E-002     5.6842773068930769E-011
   2.6250000000000002E-002     1.3642375253986749E-010
   2.6625000000000003E-002     3.2127671887392431E-010
   2.7000000000000003E-002     7.4236638100228451E-010
   2.7375000000000003E-002     1.6830065670742065E-009
   2.7750000000000004E-002     3.7432644841263593E-009
   2.8125000000000004E-002     8.1675142435582604E-009
   2.8500000000000004E-002     1.7481010153000461E-008
   2.8875000000000005E-002     3.6698696291910197E-008
   2.9250000000000005E-002     7.5562958492175197E-008
   2.9625000000000005E-002     1.5257972227193466E-007
   3.0000000000000006E-002     3.0211613425189289E-007
   3.0375000000000006E-002     5.8653857658164321E-007
   3.0750000000000000E-002     1.1163769469418590E-006
   3.1125000000000000E-002     2.0829005155582407E-006
   3.1500000000000000E-002     3.8088772803847586E-006
   3.1875000000000001E-002     6.8255821129940167E-006
   3.2250000000000001E-002     1.1984522293160434E-005
   3.2625000000000001E-002     2.0613636455967126E-005
   3.3000000000000002E-002     3.4726006795641719E-005
   3.3375000000000002E-002     5.7281867266836210E-005
   3.3750000000000002E-002     9.2496363648765631E-005
   3.4125000000000003E-002     1.4616774214853447E-004
   3.4500000000000003E-002     2.2596916443062649E-004
   3.4875000000000003E-002     3.4162370515439727E-004
   3.5250000000000004E-002     5.0484126531899173E-004
   3.5625000000000004E-002     7.2886572270198732E-004
   3.6000000000000004E-002     1.0274335499391189E-003
   3.6375000000000005E-002     1.4131069349939377E-003
   3.6750000000000005E-002     1.8946208657140947E-003
   3.7125000000000005E-002     2.4737666927324067E-003
   3.7500000000000006E-002     3.1414088478569132E-003
   3.7875000000000006E-002     3.8735562256248506E-003
   3.8250000000000006E-002     4.6285921686522423E-003
   3.8625000000000007E-002     5.3448656020791902E-003
   3.9000000000000000E-002     5.9430807082365327E-003
   3.9375000000000000E-002     6.3293870720678895E-003
   3.9750000000000001E-002     6.4070028743519148E-003
   4.0125000000000001E-002     6.0859930149088689E-003
   4.0500000000000001E-002     5.3031041889696059E-003
   4.0875000000000002E-002     4.0358385515797636E-003
   4.1250000000000002E-002     2.3194769800976506E-003
   4.1625000000000002E-002     2.5449751012213395E-004
   4.2000000000000003E-002    -1.9919661725545327E-003
   4.2375000000000003E-002    -4.2014780946983132E-003
   4.2750000000000003E-002    -6.1278275504518791E-003
   4.3125000000000004E-002    -7.5361699936561926E-003
   4.3500000000000004E-002    -8.2463899042721309E-003
   4.3875000000000004E-002    -8.1791247358467094E-003
   4.4250000000000005E-002    -7.3906535856661498E-003
   4.4625000000000005E-002    -6.0919223277801663E-003
   4.5000000000000005E-002    -4.6446109322993050E-003
   4.5375000000000006E-002    -3.5256982533322864E-003
   4.5750000000000006E-002    -3.2691048596279319E-003
   4.6125000000000006E-002    -4.3866944508262331E-003
   4.6500000000000007E-002    -7.2768335366111547E-003
   4.6875000000000007E-002    -1.2148977353100450E-002
   4.7250000000000000E-002    -1.8950960177511834E-002
   4.7625000000000001E-002    -2.7350662397237633E-002
   4.8000000000000001E-002    -3.6739966887425077E-002
   4.8375000000000001E-002    -4.6290194742694510E-002
   4.8750000000000002E-002    -5.5039088386347960E-002
   4.9125000000000002E-002    -6.2003665038694783E-002
   4.9500000000000002E-002    -6.6295695335275726E-002
   4.9875000000000003E-002    -6.7228857710925474E-002
   5.0250000000000003E-002    -6.4396575168941761E-002
   5.0625000000000003E-002    -5.7716619137600789E-002
   5.1000000000000004E-002    -4.7425044868112790E-002
   5.1375000000000004E-002    -3.4029481876411929E-002
   5.1750000000000004E-002    -1.8254651743319250E-002
   5.2125000000000005E-002    -9.2122749225344715E-004
   5.2500000000000005E-002     1.7130827428010063E-002
   5.2875000000000005E-002     3.5123550412584074E-002
   5.3250000000000006E-002     5.2427038489217440E-002
   5.3625000000000006E-002     6.8565355763580110E-002
   5.4000000000000006E-002     8.3218756625194013E-002
   5.4375000000000007E-002     9.6233435957503069E-002
   5.4750000000000007E-002    0.10750823456062347     
   5.5125000000000007E-002    0.11701311166151873     
   5.5500000000000008E-002    0.12466505148249549     
   5.5875000000000008E-002    0.13033461702843788     
   5.6250000000000008E-002    0.13381275345028185     
   5.6625000000000009E-002    0.13477506989929389     
   5.7000000000000009E-002    0.13288330579340268     
   5.7375000000000009E-002    0.12775122527757402     
   5.7750000000000010E-002    0.11906807817590445     
   5.8125000000000010E-002    0.10663171366328196     
   5.8500000000000010E-002     9.0409558026113918E-002
   5.8875000000000011E-002     7.0590629115797457E-002
   5.9250000000000011E-002     4.7595131868762193E-002
   5.9624999999999997E-002     2.2067523740892100E-002
   5.9999999999999998E-002    -5.1476572092351933E-003
   6.0374999999999998E-002    -3.3061918014639785E-002
   6.0749999999999998E-002    -6.0623623105323404E-002
   6.1124999999999999E-002    -8.6739409942236709E-002
   6.1499999999999999E-002   -0.11041228245391423     
   6.1874999999999999E-002   -0.13072193360517997     
   6.2250000000000000E-002   -0.14693192723286844     
   6.2625000000000000E-002   -0.15846604796923358     
   6.3000000000000000E-002   -0.16493909974124485     
   6.3375000000000001E-002   -0.16618316211772291     
   6.3750000000000001E-002   -0.16216246020998634     
   6.4125000000000001E-002   -0.15307740798718750     
   6.4500000000000002E-002   -0.13923129189501271     
   6.4875000000000002E-002   -0.12108697629997350     
   6.5250000000000002E-002    -9.9276886057801744E-002
   6.5625000000000003E-002    -7.4499906769883120E-002
   6.6000000000000003E-002    -4.7619343927840473E-002
   6.6375000000000003E-002    -1.9596157415741691E-002
   6.6750000000000004E-002     8.5375956565129103E-003
   6.7125000000000004E-002     3.5618202583765683E-002
   6.7500000000000004E-002     6.0483413322463764E-002
   6.7875000000000005E-002     8.1918060136145998E-002
   6.8250000000000005E-002     9.8738268104303875E-002
   6.8625000000000005E-002    0.10989630078359075     
   6.9000000000000006E-002    0.11446297858583698     
   6.9375000000000006E-002    0.11181631460969237     
   6.9750000000000006E-002    0.10167022584579377     
   7.0125000000000007E-002     8.4117183579710597E-002
   7.0500000000000007E-002     5.9809701442983407E-002
   7.0875000000000007E-002     2.9820124503754340E-002
   7.1250000000000008E-002    -4.2338483040027380E-003
   7.1625000000000008E-002    -4.0298199800670294E-002
   7.2000000000000008E-002    -7.6041618828155452E-002
   7.2375000000000009E-002   -0.10889743595867099     
   7.2750000000000009E-002   -0.13634095867273946     
   7.3125000000000009E-002   -0.15609288117011003     
   7.3500000000000010E-002   -0.16629119846692042     
   7.3875000000000010E-002   -0.16573010106639105     
   7.4250000000000010E-002   -0.15402718141529564     
   7.4625000000000011E-002   -0.13166496645814152     
   7.5000000000000011E-002   -0.10005820372255969     
   7.5375000000000011E-002    -6.1394377949758161E-002
   7.5750000000000012E-002    -1.8508982303489602E-002
   7.6124999999999998E-002     2.5449058912447708E-002
   7.6499999999999999E-002     6.7281221786654022E-002
   7.6874999999999999E-002    0.10409599460516859     
   7.7249999999999999E-002    0.13363873791997219     
   7.7625000000000000E-002    0.15442327161503050     
   7.8000000000000000E-002    0.16596192935095308     
   7.8375000000000000E-002    0.16862448570760433     
   7.8750000000000001E-002    0.16359844614314589     
   7.9125000000000001E-002    0.15258360555626616     
   7.9500000000000001E-002    0.13750508498805863     
   7.9875000000000002E-002    0.12025194481622359     
   8.0250000000000002E-002    0.10232596692854634     
   8.0625000000000002E-002     8.4752009372817502E-002
   8.1000000000000003E-002     6.7970008964409870E-002
   8.1375000000000003E-002     5.1891730186648229E-002
   8.1750000000000003E-002     3.6066912350657912E-002
   8.2125000000000004E-002     1.9920193827251725E-002
   8.2500000000000004E-002     2.9780400951501234E-003
   8.2875000000000004E-002    -1.4899881207228646E-002
   8.3250000000000005E-002    -3.3360642242200950E-002
   8.3625000000000005E-002    -5.1502372086691985E-002
   8.4000000000000005E-002    -6.7936861146493138E-002
   8.4375000000000006E-002    -8.0988147932977553E-002
   8.4750000000000006E-002    -8.8867167790335697E-002
   8.5125000000000006E-002    -9.0077130172900463E-002
   8.5500000000000007E-002    -8.3638381647525947E-002
   8.5875000000000007E-002    -6.9376146962726690E-002
   8.6250000000000007E-002    -4.8103738207773444E-002
   8.6625000000000008E-002    -2.1611919614845036E-002
   8.7000000000000008E-002     7.4419336208546537E-003
   8.7375000000000008E-002     3.5745558478969625E-002
   8.7750000000000009E-002     5.9813855359437548E-002
   8.8125000000000009E-002     7.6390044758230996E-002
   8.8500000000000009E-002     8.2917429276440621E-002
   8.8875000000000010E-002     7.8027359928933240E-002
   8.9250000000000010E-002     6.1719075378309812E-002
   8.9625000000000010E-002     3.5526449971969382E-002
   9.0000000000000011E-002     2.3759731727321940E-003
   9.0375000000000011E-002    -3.3743099005454594E-002
   9.0750000000000011E-002    -6.8290759023732245E-002
   9.1125000000000012E-002    -9.6754357994699447E-002
   9.1500000000000012E-002   -0.11525780785579297     
   9.1875000000000012E-002   -0.12116006751862829     
   9.2250000000000013E-002   -0.11328008815885404     
   9.2624999999999999E-002    -9.2285746901008242E-002
   9.2999999999999999E-002    -6.0387620330615011E-002
   9.3375000000000000E-002    -2.1223007875372579E-002
   9.3750000000000000E-002     2.0649543253782526E-002
   9.4125000000000000E-002     6.0399617404307424E-002
   9.4500000000000001E-002     9.3351636907874000E-002
   9.4875000000000001E-002    0.11573562413311998     
   9.5250000000000001E-002    0.12490678853435147     
   9.5625000000000002E-002    0.11982786391335784     
   9.6000000000000002E-002    0.10095985729710601     
   9.6375000000000002E-002     7.0330324224356672E-002
   9.6750000000000003E-002     3.1147607563705243E-002
   9.7125000000000003E-002    -1.2541356553083348E-002
   9.7500000000000003E-002    -5.6291588314102095E-002
   9.7875000000000004E-002    -9.5816588153645396E-002
   9.8250000000000004E-002   -0.12730208912908136     
   9.8625000000000004E-002   -0.14789147954941900     
   9.9000000000000005E-002   -0.15575976710271588     
   9.9375000000000005E-002   -0.15034290474062370     
   9.9750000000000005E-002   -0.13214861627531618     
  0.10012500000000001        -0.10275788981923185     
  0.10050000000000001         -6.4584568865507300E-002
  0.10087500000000001         -2.0570679396982539E-002
  0.10125000000000001          2.5783557236150844E-002
  0.10162500000000001          7.0911048413361058E-002
  0.10200000000000001         0.11109041286561004     
  0.10237500000000001         0.14280838560871470     
  0.10275000000000001         0.16288776896687535     
  0.10312500000000001         0.16877424557923348     
  0.10350000000000001         0.15877804199406081     
  0.10387500000000001         0.13243641167836290     
  0.10425000000000001          9.0708755182234660E-002
  0.10462500000000001          3.6005177209892297E-002
  0.10500000000000001         -2.7612110436508311E-002
  0.10537500000000001         -9.4973215249489457E-002
  0.10575000000000001        -0.15998825643507211     
  0.10612500000000001        -0.21641031425245699     
  0.10650000000000001        -0.25849450723797307     
  0.10687500000000001        -0.28159799533895702     
  0.10725000000000001        -0.28287421890903319     
  0.10762500000000001        -0.26142822661784798     
  0.10800000000000001        -0.21859098271263158     
  0.10837500000000001        -0.15754983076562615     
  0.10875000000000001         -8.3039661213786739E-002
  0.10912500000000000         -6.7877195958420365E-004
  0.10950000000000000          8.3616513724564995E-002
  0.10987500000000000         0.16424284335677086     
  0.11025000000000000         0.23652897374708520     
  0.11062500000000001         0.29671673097750506     
  0.11100000000000000         0.34260472368083866     
  0.11137500000000002         0.37303304825814471     
  0.11175000000000000         0.38808118846622419     
  0.11212500000000002         0.38875735685657714     
  0.11250000000000000         0.37664936342489885     
  0.11287500000000002         0.35387391999072682     
  0.11325000000000000         0.32270744805448881     
  0.11362500000000002         0.28540102563105851     
  0.11400000000000000         0.24400013621088990     
  0.11437500000000002         0.20013504976850749     
  0.11475000000000000         0.15478905343334498     
  0.11512500000000002         0.10818174102852250     
  0.11550000000000001          5.9722748884216123E-002
  0.11587500000000002          7.9240285579984613E-003
  0.11625000000000001         -4.9259413661611608E-002
  0.11662500000000002        -0.11423255803192728     
  0.11700000000000001        -0.18915287583103951     
  0.11737499999999999        -0.27532771566076986     
  0.11775000000000001        -0.37261850913137395     
  0.11812499999999999        -0.47883296603190628     
  0.11850000000000001        -0.58940533205173506     
  0.11887499999999999        -0.69735224790360339     
  0.11925000000000001        -0.79365636558520269     
  0.11962500000000000        -0.86804328725975255     
  0.12000000000000001        -0.91011603613860892     
  0.12037500000000000        -0.91054182426135644     
  0.12075000000000001        -0.86259709365539528     
  0.12112500000000000        -0.76315445233532253     
  0.12150000000000001        -0.61352325409337716     
  0.12187500000000000        -0.41967551460217439     
  0.12225000000000001        -0.19172960828957741     
  0.12262500000000000          5.6666841007697102E-002
  0.12300000000000001         0.31023530452287984     
  0.12337500000000000         0.55309718806732766     
  0.12375000000000001         0.77076935775023769     
  0.12412500000000000         0.95148187017960595     
  0.12450000000000001          1.0866321121989744     
  0.12487500000000000          1.1716188972573782     
  0.12525000000000003          1.2054447843266276     
  0.12562499999999999          1.1898575248292109     
  0.12600000000000000          1.1288574942332341     
  0.12637500000000002          1.0274726303643287     
  0.12675000000000003         0.89119034469280611     
  0.12712499999999999         0.72553669484648886     
  0.12750000000000000         0.53586530836787261     
  0.12787500000000002         0.32796417567005126     
  0.12825000000000003         0.10802858118736730     
  0.12862499999999999        -0.11625117706173824     
  0.12900000000000000        -0.33585201317947455     
  0.12937500000000002        -0.54044405856697542     
  0.12975000000000003        -0.71823414681290321     
  0.13012499999999999        -0.85769017230922684     
  0.13050000000000000        -0.94805958603579588     
  0.13087500000000002        -0.98084187169267545     
  0.13125000000000003        -0.95151682140673821     
  0.13162499999999999        -0.85996449318277668     
  0.13200000000000001        -0.71142447436573764     
  0.13237500000000002        -0.51670605280803894     
  0.13275000000000003        -0.29113760271011485     
  0.13312499999999999         -5.3818630102329928E-002
  0.13350000000000001         0.17435964419239514     
  0.13387500000000002         0.37266292999377099     
  0.13424999999999998         0.52262140831930060     
  0.13462499999999999         0.61026520886458457     
  0.13500000000000001         0.62757763773174280     
  0.13537500000000002         0.57360435534999643     
  0.13574999999999998         0.45489279419628997     
  0.13612500000000000         0.28458330815950023     
  0.13650000000000001          8.1440540551394380E-002
  0.13687500000000002        -0.13264888998981492     
  0.13724999999999998        -0.33478638934761662     
  0.13762500000000000        -0.50405066368362439     
  0.13800000000000001        -0.62374422128171969     
  0.13837500000000003        -0.68310475867856735     
  0.13874999999999998        -0.67863886209275825     
  0.13912500000000000        -0.61406788847016913     
  0.13950000000000001        -0.49945573685910305     
  0.13987500000000003        -0.34959708728052741     
  0.14024999999999999        -0.18182900297752069     
  0.14062500000000000         -1.3631133306488637E-002
  0.14100000000000001         0.13965697674078437     
  0.14137500000000003         0.26642585286617720     
  0.14174999999999999         0.35995236800808394     
  0.14212500000000000         0.41843444628818749     
  0.14250000000000002         0.44438833495300112     
  0.14287500000000003         0.44343731532203207     
  0.14324999999999999         0.42269130290991658     
  0.14362500000000000         0.38919152884164981     
  0.14400000000000002         0.34858467365784734     
  0.14437500000000003         0.30435614012278300     
  0.14474999999999999         0.25779464534756019     
  0.14512500000000000         0.20822742263013966     
  0.14550000000000002         0.15409134573252772     
  0.14587500000000003          9.4101329775297032E-002
  0.14624999999999999          2.7923166806549667E-002
  0.14662500000000001         -4.2497308818647772E-002
  0.14700000000000002        -0.11327013323214691     
  0.14737500000000003        -0.17873535877053043     
  0.14774999999999999        -0.23189160140166526     
  0.14812500000000001        -0.26615356689117275     
  0.14850000000000002        -0.27622650801755938     
  0.14887500000000004        -0.25906691494230494     
  0.14924999999999999        -0.21504212257423519     
  0.14962500000000001        -0.14784195277889800     
  0.15000000000000002         -6.4132526559275704E-002
  0.15037499999999998          2.7114069441997686E-002
  0.15075000000000000         0.11578479807760335     
  0.15112500000000001         0.19209166009125711     
  0.15150000000000002         0.24785752381360437     
  0.15187499999999998         0.27727651350218424     
  0.15225000000000000         0.27780006350657510     
  0.15262500000000001         0.25042190187356023     
  0.15300000000000002         0.19894468351210334     
  0.15337499999999998         0.12972920996097562     
  0.15375000000000000          5.0663768381407695E-002
  0.15412500000000001         -2.9976516668232270E-002
  0.15450000000000003        -0.10449301214688382     
  0.15487499999999998        -0.16644644979093393     
  0.15525000000000000        -0.21139428145523059     
  0.15562500000000001        -0.23715317562656146     
  0.15600000000000003        -0.24334608315955925     
  0.15637499999999999        -0.23177396754833823     
  0.15675000000000000        -0.20546320825814746     
  0.15712500000000001        -0.16812013615210489     
  0.15750000000000003        -0.12410069908053406     
  0.15787499999999999         -7.7371239030766675E-002
  0.15825000000000000         -3.1518729156240995E-002
  0.15862500000000002          1.0363669659230530E-002
  0.15900000000000003          4.6052287012328830E-002
  0.15937499999999999          7.3993761345197834E-002
  0.15975000000000000          9.3232726355923640E-002
  0.16012500000000002         0.10365663182586710     
  0.16050000000000003         0.10544848205574442     
  0.16087499999999999          9.9470263203764619E-002
  0.16125000000000000          8.7036578592082775E-002
  0.16162500000000002          6.9611889304545191E-002
  0.16200000000000003          4.9148685595156234E-002
  0.16237499999999999          2.7578083617529392E-002
  0.16275000000000001          6.6742921890130518E-003
  0.16312500000000002         -1.1814482383015933E-002
  0.16350000000000003         -2.6701966514899266E-002
  0.16387499999999999         -3.7200309219521784E-002
  0.16425000000000001         -4.3171034180952257E-002
  0.16462500000000002         -4.4725620117552906E-002
  0.16500000000000004         -4.2711813440221250E-002
  0.16537499999999999         -3.8072929913760926E-002
  0.16575000000000001         -3.1858971320397063E-002
  0.16612500000000002         -2.5261124287706500E-002
  0.16650000000000004         -1.9182212091355174E-002
  0.16687500000000000         -1.4296398003038814E-002
  0.16725000000000001         -1.1153672019505125E-002
  0.16762500000000002         -9.8618570125380955E-003
  0.16799999999999998         -1.0631461098321280E-002
  0.16837500000000000         -1.3348356151478826E-002
  0.16875000000000001         -1.7778143889539150E-002
  0.16912500000000003         -2.3841681990944684E-002
  0.16949999999999998         -3.0955119873094399E-002
  0.16987500000000000         -3.8367497873687900E-002
  0.17025000000000001         -4.4828250718781423E-002
  0.17062500000000003         -4.8200333256535277E-002
  0.17099999999999999         -4.6036924499459633E-002
  0.17137500000000000         -3.5390713290145891E-002
  0.17175000000000001         -1.3571404540594224E-002
  0.17212500000000003          2.0998964446186361E-002
  0.17249999999999999          6.7906798215582403E-002
  0.17287500000000000         0.12385255615746142     
  0.17325000000000002         0.18211089302491595     
  0.17362500000000003         0.23276927702505926     
  0.17399999999999999         0.26376196406238350     
  0.17437500000000000         0.26272524635679745     
  0.17475000000000002         0.21966157451757934     
  0.17512500000000003         0.12996237268175601     
  0.17549999999999999         -3.5922731851021628E-003
  0.17587500000000000        -0.16873141010742315     
  0.17625000000000002        -0.34443178958391646     
  0.17662500000000003        -0.50278954350957650     
  0.17699999999999999        -0.61282014937762419     
  0.17737500000000000        -0.64598357080566515     
  0.17775000000000002        -0.58155587508718953     
  0.17812500000000003        -0.41193552628670643     
  0.17849999999999999        -0.14566624777430978     
  0.17887500000000001         0.19173107152264668     
  0.17925000000000002         0.55981749218648702     
  0.17962500000000003         0.90868347804192251     
  0.17999999999999999          1.1855841368108864     
  0.18037500000000001          1.3433223710240354     
  0.18075000000000002          1.3479072360514326     
  0.18112500000000004          1.1840584003464341     
  0.18149999999999999         0.85885276889370743     
  0.18187500000000001         0.40156128142943004     
  0.18225000000000002        -0.14015593393044631     
  0.18262500000000004        -0.70556234627414360     
  0.18300000000000000         -1.2293546069242867     
  0.18337500000000001         -1.6497237701365637     
  0.18375000000000002         -1.9159827022419704     
  0.18412499999999998         -1.9950993944625757     
  0.18450000000000000         -1.8747856919973453     
  0.18487500000000001         -1.5649293643959155     
  0.18525000000000003         -1.0956584530977040     
  0.18562499999999998        -0.51317487155305785     
  0.18600000000000000         0.12538470738050878     
  0.18637500000000001         0.75886711157090903     
  0.18675000000000003          1.3282952162317994     
  0.18712499999999999          1.7826254772729007     
  0.18750000000000000          2.0832236295894817     
  0.18787500000000001          2.2068869773998676     
  0.18825000000000003          2.1466461364541272     
  0.18862499999999999          1.9119577282847144     
  0.18900000000000000          1.5258940556006093     