  -1.4999999999999999E-002     0.0000000000000000     
  -1.4624999999999999E-002     0.0000000000000000     
  -1.4249999999999999E-002     0.0000000000000000     
  -1.3874999999999998E-002     0.0000000000000000     
  -1.3500000000000000E-002     0.0000000000000000     
  -1.3125000000000000E-002     0.0000000000000000     
  -1.2749999999999999E-002     0.0000000000000000     
  -1.2374999999999999E-002     0.0000000000000000     
  -1.2000000000000000E-002     0.0000000000000000     
  -1.1625000000000000E-002     0.0000000000000000     
  -1.1250000000000000E-002     0.0000000000000000     
  -1.0874999999999999E-002     0.0000000000000000     
  -1.0499999999999999E-002     0.0000000000000000     
  -1.0124999999999999E-002     0.0000000000000000     
  -9.7499999999999983E-003     0.0000000000000000     
  -9.3749999999999979E-003     0.0000000000000000     
  -8.9999999999999993E-003     0.0000000000000000     
  -8.6249999999999990E-003     0.0000000000000000     
  -8.2500000000000004E-003     0.0000000000000000     
  -7.8750000000000001E-003     0.0000000000000000     
  -7.4999999999999989E-003     0.0000000000000000     
  -7.1249999999999994E-003     0.0000000000000000     
  -6.7499999999999991E-003     0.0000000000000000     
  -6.3749999999999987E-003     0.0000000000000000     
  -5.9999999999999984E-003     0.0000000000000000     
  -5.6249999999999998E-003     0.0000000000000000     
  -5.2499999999999995E-003     0.0000000000000000     
  -4.8749999999999991E-003     0.0000000000000000     
  -4.4999999999999988E-003     0.0000000000000000     
  -4.1249999999999985E-003     0.0000000000000000     
  -3.7499999999999981E-003     0.0000000000000000     
  -3.3749999999999995E-003     0.0000000000000000     
  -2.9999999999999992E-003     0.0000000000000000     
  -2.6249999999999989E-003     0.0000000000000000     
  -2.2499999999999985E-003     0.0000000000000000     
  -1.8749999999999982E-003     0.0000000000000000     
  -1.4999999999999996E-003     0.0000000000000000     
  -1.1249999999999993E-003     0.0000000000000000     
  -7.4999999999999893E-004     0.0000000000000000     
  -3.7499999999999860E-004     0.0000000000000000     
   1.7347234759768071E-018     0.0000000000000000     
   3.7500000000000207E-004     0.0000000000000000     
   7.5000000000000067E-004     0.0000000000000000     
   1.1250000000000010E-003     0.0000000000000000     
   1.5000000000000013E-003     0.0000000000000000     
   1.8750000000000017E-003     0.0000000000000000     
   2.2500000000000020E-003     0.0000000000000000     
   2.6250000000000023E-003     0.0000000000000000     
   3.0000000000000027E-003     0.0000000000000000     
   3.3750000000000030E-003     0.0000000000000000     
   3.7499999999999999E-003     0.0000000000000000     
   4.1250000000000002E-003     0.0000000000000000     
   4.5000000000000005E-003     0.0000000000000000     
   4.8750000000000009E-003     0.0000000000000000     
   5.2500000000000012E-003    -8.3944441467514100E-037
   5.6250000000000015E-003    -1.1849543485991286E-037
   6.0000000000000019E-003     5.8833520957248039E-035
   6.3750000000000022E-003     1.6957104778046447E-033
   6.7500000000000025E-003     6.7305244780201191E-032
   7.1250000000000029E-003     2.0683725882379580E-031
   7.5000000000000032E-003    -2.3035066291933921E-030
   7.8750000000000001E-003    -6.7675282408478462E-030
   8.2500000000000004E-003     8.5171471229168297E-029
   8.6250000000000007E-003    -1.5501772807480189E-028
   9.0000000000000011E-003    -1.0862819776432410E-027
   9.3750000000000014E-003     9.1337350872081101E-027
   9.7500000000000017E-003    -4.0644378730601128E-026
   1.0125000000000002E-002     1.3722159025419307E-025
   1.0500000000000002E-002    -4.4624308338445484E-025
   1.0875000000000003E-002     3.6727367929000101E-024
   1.1250000000000003E-002     1.1237553153396732E-023
   1.1625000000000003E-002     4.5632892840965194E-023
   1.2000000000000000E-002     1.6965212335424319E-022
   1.2375000000000001E-002     6.4046301705992764E-022
   1.2750000000000001E-002     2.3609243236749682E-021
   1.3125000000000001E-002     8.5516145080105434E-021
   1.3500000000000002E-002     3.0412545684953695E-020
   1.3875000000000002E-002     1.0619229027916983E-019
   1.4250000000000002E-002     3.6405694758864272E-019
   1.4625000000000003E-002     1.2253802929548033E-018
   1.5000000000000003E-002     4.0493870017272984E-018
   1.5375000000000003E-002     1.3137564557156066E-017
   1.5750000000000004E-002     4.1844952915411985E-017
   1.6125000000000000E-002     1.3084691006965554E-016
   1.6500000000000001E-002     4.0166635878021903E-016
   1.6875000000000001E-002     1.2104257517359194E-015
   1.7250000000000001E-002     3.5807352227615677E-015
   1.7625000000000002E-002     1.0398230670602415E-014
   1.8000000000000002E-002     2.9640152772502162E-014
   1.8375000000000002E-002     8.2933578624336257E-014
   1.8750000000000003E-002     2.2776688846613824E-013
   1.9125000000000003E-002     6.1397393245898879E-013
   1.9500000000000003E-002     1.6243905092555577E-012
   1.9875000000000004E-002     4.2179194165159473E-012
   2.0250000000000004E-002     1.0748660642101449E-011
   2.0625000000000004E-002     2.6880803138951137E-011
   2.1000000000000005E-002     6.5969202323046261E-011
   2.1375000000000005E-002     1.5886536530729245E-010
   2.1750000000000005E-002     3.7539218955551235E-010
   2.2125000000000006E-002     8.7033880102893590E-010
   2.2499999999999999E-002     1.9797363748352836E-009
   2.2875000000000000E-002     4.4178967151253801E-009
   2.3250000000000000E-002     9.6712868824511133E-009
   2.3625000000000000E-002     2.0767302544300037E-008
   2.4000000000000000E-002     4.3738864974329772E-008
   2.4375000000000001E-002     9.0345785963563685E-008
   2.4750000000000001E-002     1.8300561066553200E-007
   2.5125000000000001E-002     3.6348387766338419E-007
   2.5500000000000002E-002     7.0782158445581445E-007
   2.5875000000000002E-002     1.3512285477190744E-006
   2.6250000000000002E-002     2.5282872684329050E-006
   2.6625000000000003E-002     4.6362229113583453E-006
   2.7000000000000003E-002     8.3303266364964657E-006
   2.7375000000000003E-002     1.4663718502561096E-005
   2.7750000000000004E-002     2.5282202841481194E-005
   2.8125000000000004E-002     4.2683721403591335E-005
   2.8500000000000004E-002     7.0548245275858790E-005
   2.8875000000000005E-002     1.1411488230805844E-004
   2.9250000000000005E-002     1.8058648856822401E-004
   2.9625000000000005E-002     2.7947360649704933E-004
   3.0000000000000006E-002     4.2276203748770058E-004
   3.0375000000000006E-002     6.2478712061420083E-004
   3.0750000000000000E-002     9.0148241724818945E-004
   3.1125000000000000E-002     1.2689316645264626E-003
   3.1500000000000000E-002     1.7409209394827485E-003
   3.1875000000000001E-002     2.3252584505826235E-003
   3.2250000000000001E-002     3.0191997066140175E-003
   3.2625000000000001E-002     3.8041719235479832E-003
   3.3000000000000002E-002     4.6398336999118328E-003
   3.3375000000000002E-002     5.4602962918579578E-003
   3.3750000000000002E-002     6.1711529269814491E-003
   3.4125000000000003E-002     6.6527226008474827E-003
   3.4500000000000003E-002     6.7660715430974960E-003
   3.4875000000000003E-002     6.3660647720098495E-003
   3.5250000000000004E-002     5.3237136453390121E-003
   3.5625000000000004E-002     3.5493699833750725E-003
   3.6000000000000004E-002     1.0176007635891438E-003
   3.6375000000000005E-002    -2.2062186617404222E-003
   3.6750000000000005E-002    -5.9570181183516979E-003
   3.7125000000000005E-002    -9.9599836394190788E-003
   3.7500000000000006E-002    -1.3859986327588558E-002
   3.7875000000000006E-002    -1.7254050821065903E-002
   3.8250000000000006E-002    -1.9755413755774498E-002
   3.8625000000000007E-002    -2.1055269986391068E-002
   3.9000000000000000E-002    -2.1007822826504707E-002
   3.9375000000000000E-002    -1.9674943760037422E-002
   3.9750000000000001E-002    -1.7379801720380783E-002
   4.0125000000000001E-002    -1.4679376035928726E-002
   4.0500000000000001E-002    -1.2332597747445107E-002
   4.0875000000000002E-002    -1.1183858849108219E-002
   4.1250000000000002E-002    -1.2051497586071491E-002
   4.1625000000000002E-002    -1.5562562271952629E-002
   4.2000000000000003E-002    -2.2003430873155594E-002
   4.2375000000000003E-002    -3.1226554885506630E-002
   4.2750000000000003E-002    -4.2556155472993851E-002
   4.3125000000000004E-002    -5.4839186370372772E-002
   4.3500000000000004E-002    -6.6496349871158600E-002
   4.3875000000000004E-002    -7.5703203678131104E-002
   4.4250000000000005E-002    -8.0580458045005798E-002
   4.4625000000000005E-002    -7.9427912831306458E-002
   4.5000000000000005E-002    -7.0954144001007080E-002
   4.5375000000000006E-002    -5.4430808871984482E-002
   4.5750000000000006E-002    -2.9851540923118591E-002
   4.6125000000000006E-002     2.0750849507749081E-003
   4.6500000000000007E-002     3.9915848523378372E-002
   4.6875000000000007E-002     8.1637732684612274E-002
   4.7250000000000000E-002    0.12478751689195633     
   4.7625000000000001E-002    0.16662633419036865     
   4.8000000000000001E-002    0.20436443388462067     
   4.8375000000000001E-002    0.23534105718135834     
   4.8750000000000002E-002    0.25718086957931519     
   4.9125000000000002E-002    0.26796001195907593     
   4.9500000000000002E-002    0.26629832386970520     
   4.9875000000000003E-002    0.25148892402648926     
   5.0250000000000003E-002    0.22357363998889923     
   5.0625000000000003E-002    0.18337060511112213     
   5.1000000000000004E-002    0.13255286216735840     
   5.1375000000000004E-002     7.3574520647525787E-002
   5.1750000000000004E-002     9.5750465989112854E-003
   5.2125000000000005E-002    -5.5699504911899567E-002
   5.2500000000000005E-002   -0.11826928704977036     
   5.2875000000000005E-002   -0.17407859861850739     
   5.3250000000000006E-002   -0.21952077746391296     
   5.3625000000000006E-002   -0.25164377689361572     
   5.4000000000000006E-002   -0.26856097579002380     
   5.4375000000000007E-002   -0.26969194412231445     
   5.4750000000000007E-002   -0.25579640269279480     
   5.5125000000000007E-002   -0.22901521623134613     
   5.5500000000000008E-002   -0.19252568483352661     
   5.5875000000000008E-002   -0.15027908980846405     
   5.6250000000000008E-002   -0.10644315183162689     
   5.6625000000000009E-002    -6.5008498728275299E-002
   5.7000000000000009E-002    -2.9170349240303040E-002
   5.7375000000000009E-002    -1.1415242915973067E-003
   5.7750000000000010E-002     1.8152182921767235E-002
   5.8125000000000010E-002     2.9002830386161804E-002
   5.8500000000000010E-002     3.2764479517936707E-002
   5.8875000000000011E-002     3.1531624495983124E-002
   5.9250000000000011E-002     2.7638046070933342E-002
   5.9624999999999997E-002     2.3322779685258865E-002
   5.9999999999999998E-002     2.0227352157235146E-002
   6.0374999999999998E-002     1.9290763884782791E-002
   6.0749999999999998E-002     2.0495599135756493E-002
   6.1124999999999999E-002     2.3062441498041153E-002
   6.1499999999999999E-002     2.5598254054784775E-002
   6.1874999999999999E-002     2.6486460119485855E-002
   6.2250000000000000E-002     2.4227336049079895E-002
   6.2625000000000000E-002     1.7793511971831322E-002
   6.3000000000000000E-002     6.9207027554512024E-003
   6.3375000000000001E-002    -7.7890511602163315E-003
   6.3750000000000001E-002    -2.4773653596639633E-002
   6.4125000000000001E-002    -4.1830450296401978E-002
   6.4500000000000002E-002    -5.6312397122383118E-002
   6.4875000000000002E-002    -6.5556809306144714E-002
   6.5250000000000002E-002    -6.7382991313934326E-002
   6.5625000000000003E-002    -6.0411080718040466E-002
   6.6000000000000003E-002    -4.4542398303747177E-002
   6.6375000000000003E-002    -2.0940054208040237E-002
   6.6750000000000004E-002     7.8338077291846275E-003
   6.7125000000000004E-002     3.8221582770347595E-002
   6.7500000000000004E-002     6.6036321222782135E-002
   6.7875000000000005E-002     8.7109647691249847E-002
   6.8250000000000005E-002     9.8000772297382355E-002
   6.8625000000000005E-002     9.6558645367622375E-002
   6.9000000000000006E-002     8.2480579614639282E-002
   6.9375000000000006E-002     5.7414878159761429E-002
   6.9750000000000006E-002     2.4949939921498299E-002
   7.0125000000000007E-002    -9.8580066114664078E-003
   7.0500000000000007E-002    -4.1122373193502426E-002
   7.0875000000000007E-002    -6.3128225505352020E-002
   7.1250000000000008E-002    -7.0998497307300568E-002
   7.1625000000000008E-002    -6.1695639044046402E-002
   7.2000000000000008E-002    -3.4300763159990311E-002
   7.2375000000000009E-002     9.6022859215736389E-003
   7.2750000000000009E-002     6.6248953342437744E-002
   7.3125000000000009E-002    0.13014087080955505     
   7.3500000000000010E-002    0.19480603933334351     
   7.3875000000000010E-002    0.25365033745765686     
   7.4250000000000010E-002    0.30065074563026428     
   7.4625000000000011E-002    0.33108130097389221     
   7.5000000000000011E-002    0.34187608957290649     
   7.5375000000000011E-002    0.33165824413299561     
   7.5750000000000012E-002    0.30071386694908142     
   7.6124999999999998E-002    0.25056040287017822     
   7.6499999999999999E-002    0.18365895748138428     
   7.6874999999999999E-002    0.10302129387855530     
   7.7249999999999999E-002     1.1944255791604519E-002
   7.7625000000000000E-002    -8.6155645549297333E-002
   7.8000000000000000E-002   -0.18764181435108185     
   7.8375000000000000E-002   -0.28854033350944519     
   7.8750000000000001E-002   -0.38459593057632446     
   7.9125000000000001E-002   -0.47107380628585815     
   7.9500000000000001E-002   -0.54300427436828613     
   7.9875000000000002E-002   -0.59537577629089355     
   8.0250000000000002E-002   -0.62379348278045654     
   8.0625000000000002E-002   -0.62485671043395996     
   8.1000000000000003E-002   -0.59695690870285034     
   8.1375000000000003E-002   -0.54048442840576172     
   8.1750000000000003E-002   -0.45808103680610657     
   8.2125000000000004E-002   -0.35470971465110779     
   8.2500000000000004E-002   -0.23677365481853485     
   8.2875000000000004E-002   -0.11176380515098572     
   8.3250000000000005E-002     1.3091411441564560E-002
   8.3625000000000005E-002    0.13141100108623505     
   8.4000000000000005E-002    0.23856757581233978     
   8.4375000000000006E-002    0.33228382468223572     
   8.4750000000000006E-002    0.41241523623466492     
   8.5125000000000006E-002    0.48063144087791443     
   8.5500000000000007E-002    0.53968042135238647     
   8.5875000000000007E-002    0.59227144718170166     
   8.6250000000000007E-002    0.64021933078765869     
   8.6625000000000008E-002    0.68353843688964844     
   8.7000000000000008E-002    0.71995037794113159     
   8.7375000000000008E-002    0.74494493007659912     
   8.7750000000000009E-002    0.75243407487869263     
   8.8125000000000009E-002    0.73551690578460693     
   8.8500000000000009E-002    0.68785607814788818     
   8.8875000000000010E-002    0.60480421781539917     
   8.9250000000000010E-002    0.48459160327911377     
   8.9625000000000010E-002    0.32907897233963013     
   9.0000000000000011E-002    0.14395749568939209     
   9.0375000000000011E-002    -6.1734326183795929E-002
   9.0750000000000011E-002   -0.27594321966171265     
   9.1125000000000012E-002   -0.48505297303199768     
   9.1500000000000012E-002   -0.67512893676757812     
   9.1875000000000012E-002   -0.83320909738540649     
   9.2250000000000013E-002   -0.94860470294952393     
   9.2624999999999999E-002    -1.0137066841125488     
   9.2999999999999999E-002    -1.0248472690582275     
   9.3375000000000000E-002   -0.98247092962265015     
   9.3750000000000000E-002   -0.89123201370239258     
   9.4125000000000000E-002   -0.75942409038543701     
   9.4500000000000001E-002   -0.59839147329330444     
   9.4875000000000001E-002   -0.42154508829116821     
   9.5250000000000001E-002   -0.24324326217174530     
   9.5625000000000002E-002    -7.7303588390350342E-002
   9.6000000000000002E-002     6.4443320035934448E-002
   9.6375000000000002E-002    0.17296497523784637     
   9.6750000000000003E-002    0.24346512556076050     
   9.7125000000000003E-002    0.27541610598564148     
   9.7500000000000003E-002    0.27276971936225891     
   9.7875000000000004E-002    0.24345262348651886     
   9.8250000000000004E-002    0.19741880893707275     
   9.8625000000000004E-002    0.14620299637317657     
   9.9000000000000005E-002    0.10031081736087799     
   9.9375000000000005E-002     6.8305917084217072E-002
   9.9750000000000005E-002     5.5446669459342957E-002
  0.10012500000000001          6.3093654811382294E-002
  0.10050000000000001          8.9064463973045349E-002
  0.10087500000000001         0.12830221652984619     
  0.10125000000000001         0.17365664243698120     
  0.10162500000000001         0.21789214015007019     
  0.10200000000000001         0.25437310338020325     
  0.10237500000000001         0.27869200706481934     
  0.10275000000000001         0.28865045309066772     
  0.10312500000000001         0.28469270467758179     
  0.10350000000000001         0.26950997114181519     
  0.10387500000000001         0.24721327424049377     
  0.10425000000000001         0.22236786782741547     
  0.10462500000000001         0.19917622208595276     
  0.10500000000000001         0.18059997260570526     
  0.10537500000000001         0.16808640956878662     
  0.10575000000000001         0.16120006144046783     
  0.10612500000000001         0.15771922469139099     
  0.10650000000000001         0.15456151962280273     
  0.10687500000000001         0.14764966070652008     
  0.10725000000000001         0.13364236056804657     
  0.10762500000000001         0.10967607796192169     
  0.10800000000000001          7.4653215706348419E-002
  0.10837500000000001          2.9179057106375694E-002
  0.10875000000000001         -2.4021634832024574E-002
  0.10912500000000000         -8.0764599144458771E-002
  0.10950000000000000        -0.13554456830024719     
  0.10987500000000000        -0.18259251117706299     
  0.11025000000000000        -0.21657177805900574     
  0.11062500000000001        -0.23359127342700958     
  0.11100000000000000        -0.23173497617244720     
  0.11137500000000002        -0.21153207123279572     
  0.11175000000000000        -0.17608742415904999     
  0.11212500000000002        -0.13056734204292297     
  0.11250000000000000         -8.1551171839237213E-002
  0.11287500000000002         -3.6195542663335800E-002
  0.11325000000000000         -8.4044685354456306E-004
  0.11362500000000002          1.9301701337099075E-002
  0.11400000000000000          2.1620813757181168E-002
  0.11437500000000002          5.8576981537044048E-003
  0.11475000000000000         -2.5747485458850861E-002
  0.11512500000000002         -6.8657338619232178E-002
  0.11550000000000001        -0.11741452664136887     
  0.11587500000000002        -0.16553376615047455     
  0.11625000000000001        -0.20727033913135529     
  0.11662500000000002        -0.23788356781005859     
  0.11700000000000001        -0.25410094857215881     
  0.11737499999999999        -0.25444343686103821     
  0.11775000000000001        -0.23930394649505615     
  0.11812499999999999        -0.21037481725215912     
  0.11850000000000001        -0.17114074528217316     
  0.11887499999999999        -0.12561334669589996     
  0.11925000000000001         -7.8693076968193054E-002
  0.11962500000000000         -3.5591125488281250E-002
  0.12000000000000001         -1.2897724518552423E-003
  0.12037500000000000          2.0180294290184975E-002
  0.12075000000000001          2.6570253074169159E-002
  0.12112500000000000          1.8361659720540047E-002
  0.12150000000000001         -9.9320500157773495E-004
  0.12187500000000000         -2.4017060175538063E-002
  0.12225000000000001         -4.0237288922071457E-002
  0.12262500000000000         -3.7355054169893265E-002
  0.12300000000000001         -3.6817057989537716E-003
  0.12337500000000000          6.9529667496681213E-002
  0.12375000000000001         0.18421252071857452     
  0.12412500000000000         0.33450472354888916     
  0.12450000000000001         0.50392580032348633     
  0.12487500000000000         0.66773486137390137     
  0.12525000000000003         0.79471457004547119     
  0.12562499999999999         0.85271531343460083     
  0.12600000000000000         0.81396776437759399     
  0.12637500000000002         0.66168993711471558     
  0.12675000000000003         0.39463010430335999     
  0.12712499999999999          3.0438439920544624E-002
  0.12750000000000000        -0.39499434828758240     
  0.12787500000000002        -0.83131867647171021     
  0.12825000000000003         -1.2195787429809570     
  0.12862499999999999         -1.5012280941009521     
  0.12900000000000000         -1.6268687248229980     
  0.12937500000000002         -1.5643891096115112     
  0.12975000000000003         -1.3047826290130615     
  0.13012499999999999        -0.86410319805145264     
  0.13050000000000000        -0.28231930732727051     
  0.13087500000000002         0.38135260343551636     
  0.13125000000000003          1.0562169551849365     
  0.13162499999999999          1.6686803102493286     
  0.13200000000000001          2.1518118381500244     
  0.13237500000000002          2.4525773525238037     
  0.13275000000000003          2.5377998352050781     
  0.13312499999999999          2.3968532085418701     
  0.13350000000000001          2.0424833297729492     
  0.13387500000000002          1.5070970058441162     
  0.13424999999999998         0.83944255113601685     
  0.13462499999999999          9.7894869744777679E-002
  0.13500000000000001        -0.65529853105545044     
  0.13537500000000002         -1.3599923849105835     
  0.13574999999999998         -1.9636521339416504     
  0.13612500000000000         -2.4251222610473633     
  0.13650000000000001         -2.7166678905487061     
  0.13687500000000002         -2.8251712322235107     
  0.13724999999999998         -2.7519190311431885     
  0.13762500000000000         -2.5105993747711182     
  0.13800000000000001         -2.1256074905395508     
  0.13837500000000003         -1.6284145116806030     
  0.13874999999999998         -1.0555011034011841     
  0.13912500000000000        -0.44535443186759949     
  0.13950000000000001         0.16499774158000946     
  0.13987500000000003         0.74083113670349121     
  0.14024999999999999          1.2527796030044556     
  0.14062500000000000          1.6770689487457275     
  0.14100000000000001          1.9964532852172852     
  0.14137500000000003          2.2009639739990234     
  0.14174999999999999          2.2874994277954102     
  0.14212500000000000          2.2585558891296387     
  0.14250000000000002          2.1226072311401367     
  0.14287500000000003          1.8925019502639771     
  0.14324999999999999          1.5845619440078735     
  0.14362500000000000          1.2175729274749756     
  0.14400000000000002         0.81115335226058960     
  0.14437500000000003         0.38553148508071899     
  0.14474999999999999         -3.9482165127992630E-002
  0.14512500000000000        -0.44602113962173462     
  0.14550000000000002        -0.81788396835327148     
  0.14587500000000003         -1.1420116424560547     
  0.14624999999999999         -1.4073721170425415     
  0.14662500000000001         -1.6066453456878662     
  0.14700000000000002         -1.7355551719665527     
  0.14737500000000003         -1.7926173210144043     
  0.14774999999999999         -1.7793930768966675     
  0.14812500000000001         -1.6995612382888794     
  0.14850000000000002         -1.5594276189804077     
  0.14887500000000004         -1.3668457269668579     
  0.14924999999999999         -1.1310983896255493     
  0.14962500000000001        -0.86209017038345337     
  0.15000000000000002        -0.57079112529754639     
  0.15037499999999998        -0.26765388250350952     
  0.15075000000000000          3.6423765122890472E-002
  0.15112500000000001         0.33174198865890503     
  0.15150000000000002         0.60918581485748291     
  0.15187499999999998         0.86038750410079956     
  0.15225000000000000          1.0790033340454102     
  0.15262500000000001          1.2593634128570557     
  0.15300000000000002          1.3975938558578491     
  0.15337499999999998          1.4911487102508545     
  0.15375000000000000          1.5390332937240601     
  0.15412500000000001          1.5414717197418213     
  0.15450000000000003          1.5003975629806519     
  0.15487499999999998          1.4181246757507324     
  0.15525000000000000          1.2989791631698608     
  0.15562500000000001          1.1472914218902588     
  0.15600000000000003         0.96858698129653931     
  0.15637499999999999         0.76846736669540405     
  0.15675000000000000         0.55329507589340210     
  0.15712500000000001         0.32889166474342346     
  0.15750000000000003         0.10178325325250626     
  0.15787499999999999        -0.12267027050256729     
  0.15825000000000000        -0.33864763379096985     
  0.15862500000000002        -0.54121887683868408     
  0.15900000000000003        -0.72597008943557739     
  0.15937499999999999        -0.88911485671997070     
  0.15975000000000000         -1.0276396274566650     
  0.16012500000000002         -1.1391824483871460     
  0.16050000000000003         -1.2220101356506348     
  0.16087499999999999         -1.2753592729568481     
  0.16125000000000000         -1.2991155385971069     
  0.16162500000000002         -1.2936947345733643     
  0.16200000000000003         -1.2599979639053345     
  0.16237499999999999         -1.1999390125274658     
  0.16275000000000001         -1.1155076026916504     
  0.16312500000000002         -1.0095193386077881     
  0.16350000000000003        -0.88465756177902222     
  0.16387499999999999        -0.74430769681930542     
  0.16425000000000001        -0.59201318025588989     
  0.16462500000000002        -0.43141067028045654     
  0.16500000000000004        -0.26593065261840820     
  0.16537499999999999         -9.9429860711097717E-002
  0.16575000000000001          6.4976416528224945E-002
  0.16612500000000002         0.22360959649085999     
  0.16650000000000004         0.37358364462852478     
  0.16687500000000000         0.51226544380187988     
  0.16725000000000001         0.63731563091278076     
  0.16762500000000002         0.74625957012176514     
  0.16799999999999998         0.83810883760452271     
  0.16837500000000000         0.91116440296173096     
  0.16875000000000001         0.96506923437118530     
  0.16912500000000003         0.99931323528289795     
  0.16949999999999998          1.0136775970458984     
  0.16987500000000000          1.0089704990386963     
  0.17025000000000001         0.98569679260253906     
  0.17062500000000003         0.94501191377639771     
  0.17099999999999999         0.88806754350662231     
  0.17137500000000000         0.81648570299148560     
  0.17175000000000001         0.73225045204162598     
  0.17212500000000003         0.63711267709732056     
  0.17249999999999999         0.53314715623855591     
  0.17287500000000000         0.42257991433143616     
  0.17325000000000002         0.30758103728294373     
  0.17362500000000003         0.19041757285594940     
  0.17399999999999999          7.3152713477611542E-002
  0.17437500000000000         -4.2122721672058105E-002
  0.17475000000000002        -0.15330024063587189     
  0.17512500000000003        -0.25863668322563171     
  0.17549999999999999        -0.35630747675895691     
  0.17587500000000000        -0.44484198093414307     
  0.17625000000000002        -0.52326345443725586     
  0.17662500000000003        -0.59006655216217041     
  0.17699999999999999        -0.64491862058639526     
  0.17737500000000000        -0.68701893091201782     
  0.17775000000000002        -0.71626722812652588     
  0.17812500000000003        -0.73268121480941772     
  0.17849999999999999        -0.73628568649291992     
  0.17887500000000001        -0.72757732868194580     
  0.17925000000000002        -0.70725029706954956     
  0.17962500000000003        -0.67591702938079834     
  0.17999999999999999        -0.63472408056259155     
  0.18037500000000001        -0.58448213338851929     
  0.18075000000000002        -0.52634936571121216     
  0.18112500000000004        -0.46169698238372803     
  0.18149999999999999        -0.39154410362243652     
  0.18187500000000001        -0.31725433468818665     
  0.18225000000000002        -0.24009947478771210     
  0.18262500000000004        -0.16129560768604279     
  0.18300000000000000         -8.2360275089740753E-002
  0.18337500000000001         -4.2920443229377270E-003
  0.18375000000000002          7.1574069559574127E-002
  0.18412499999999998         0.14407820999622345     
  0.18450000000000000         0.21216817200183868     
  0.18487500000000001         0.27481091022491455     
  0.18525000000000003         0.33134186267852783     
  0.18562499999999998         0.38087761402130127     
  0.18600000000000000         0.42296999692916870     
  0.18637500000000001         0.45701253414154053     
  0.18675000000000003         0.48302191495895386     
  0.18712499999999999         0.50066101551055908     
  0.18750000000000000         0.51016563177108765     
  0.18787500000000001         0.51151043176651001     
  0.18825000000000003         0.50510132312774658     
  0.18862499999999999         0.49134820699691772     
  0.18900000000000000         0.47072756290435791     