  -1.4999999999999999E-002     0.0000000000000000     
  -1.4624999999999999E-002     0.0000000000000000     
  -1.4249999999999999E-002     0.0000000000000000     
  -1.3874999999999998E-002     0.0000000000000000     
  -1.3500000000000000E-002     0.0000000000000000     
  -1.3125000000000000E-002     0.0000000000000000     
  -1.2749999999999999E-002     0.0000000000000000     
  -1.2374999999999999E-002     0.0000000000000000     
  -1.2000000000000000E-002     0.0000000000000000     
  -1.1625000000000000E-002     0.0000000000000000     
  -1.1250000000000000E-002     0.0000000000000000     
  -1.0874999999999999E-002     0.0000000000000000     
  -1.0499999999999999E-002     0.0000000000000000     
  -1.0124999999999999E-002     0.0000000000000000     
  -9.7499999999999983E-003     0.0000000000000000     
  -9.3749999999999979E-003     0.0000000000000000     
  -8.9999999999999993E-003     0.0000000000000000     
  -8.6249999999999990E-003     0.0000000000000000     
  -8.2500000000000004E-003     0.0000000000000000     
  -7.8750000000000001E-003     0.0000000000000000     
  -7.4999999999999989E-003     0.0000000000000000     
  -7.1249999999999994E-003     0.0000000000000000     
  -6.7499999999999991E-003     0.0000000000000000     
  -6.3749999999999987E-003     0.0000000000000000     
  -5.9999999999999984E-003     0.0000000000000000     
  -5.6249999999999998E-003     0.0000000000000000     
  -5.2499999999999995E-003     0.0000000000000000     
  -4.8749999999999991E-003     0.0000000000000000     
  -4.4999999999999988E-003     0.0000000000000000     
  -4.1249999999999985E-003     0.0000000000000000     
  -3.7499999999999981E-003     0.0000000000000000     
  -3.3749999999999995E-003     0.0000000000000000     
  -2.9999999999999992E-003     0.0000000000000000     
  -2.6249999999999989E-003     0.0000000000000000     
  -2.2499999999999985E-003     0.0000000000000000     
  -1.8749999999999982E-003     0.0000000000000000     
  -1.4999999999999996E-003     0.0000000000000000     
  -1.1249999999999993E-003     0.0000000000000000     
  -7.4999999999999893E-004     0.0000000000000000     
  -3.7499999999999860E-004     0.0000000000000000     
   1.7347234759768071E-018     0.0000000000000000     
   3.7500000000000207E-004     0.0000000000000000     
   7.5000000000000067E-004     0.0000000000000000     
   1.1250000000000010E-003     0.0000000000000000     
   1.5000000000000013E-003     0.0000000000000000     
   1.8750000000000017E-003     0.0000000000000000     
   2.2500000000000020E-003     0.0000000000000000     
   2.6250000000000023E-003     0.0000000000000000     
   3.0000000000000027E-003     0.0000000000000000     
   3.3750000000000030E-003     0.0000000000000000     
   3.7499999999999999E-003     0.0000000000000000     
   4.1250000000000002E-003     0.0000000000000000     
   4.5000000000000005E-003     0.0000000000000000     
   4.8750000000000009E-003     0.0000000000000000     
   5.2500000000000012E-003     0.0000000000000000     
   5.6250000000000015E-003     0.0000000000000000     
   6.0000000000000019E-003     0.0000000000000000     
   6.3750000000000022E-003     0.0000000000000000     
   6.7500000000000025E-003     0.0000000000000000     
   7.1250000000000029E-003     0.0000000000000000     
   7.5000000000000032E-003     0.0000000000000000     
   7.8750000000000001E-003     0.0000000000000000     
   8.2500000000000004E-003     0.0000000000000000     
   8.6250000000000007E-003     0.0000000000000000     
   9.0000000000000011E-003     0.0000000000000000     
   9.3750000000000014E-003     0.0000000000000000     
   9.7500000000000017E-003     0.0000000000000000     
   1.0125000000000002E-002     0.0000000000000000     
   1.0500000000000002E-002     1.0539006316229420E-036
   1.0875000000000003E-002     1.4157829491949557E-035
   1.1250000000000003E-002    -4.2960490281523688E-034
   1.1625000000000003E-002    -8.9788626796292026E-033
   1.2000000000000000E-002    -9.7169308296454639E-032
   1.2375000000000001E-002     1.9053420220148230E-031
   1.2750000000000001E-002     4.0675955669156526E-030
   1.3125000000000001E-002    -1.2423226221884894E-029
   1.3500000000000002E-002    -7.7660865065324412E-029
   1.3875000000000002E-002     6.6358122412475799E-028
   1.4250000000000002E-002    -2.0792080969167224E-027
   1.4625000000000003E-002     1.4698887084189404E-027
   1.5000000000000003E-002     1.5338675872726075E-026
   1.5375000000000003E-002    -9.8820365764125182E-026
   1.5750000000000004E-002     5.0866093771442022E-025
   1.6125000000000000E-002     4.5498781639996618E-024
   1.6500000000000001E-002     1.5573863595969769E-023
   1.6875000000000001E-002     6.0164267984040805E-023
   1.7250000000000001E-002     2.2690996835622160E-022
   1.7625000000000002E-002     8.4588460305625108E-022
   1.8000000000000002E-002     3.0940569656228178E-021
   1.8375000000000002E-002     1.1109965734340306E-020
   1.8750000000000003E-002     3.9172904800757638E-020
   1.9125000000000003E-002     1.3560783728320485E-019
   1.9500000000000003E-002     4.6091077800581846E-019
   1.9875000000000004E-002     1.5380511219129464E-018
   2.0250000000000004E-002     5.0389556630614149E-018
   2.0625000000000004E-002     1.6207530313426764E-017
   2.1000000000000005E-002     5.1179257131928273E-017
   2.1375000000000005E-002     1.5865711983518014E-016
   2.1750000000000005E-002     4.8284221906671342E-016
   2.2125000000000006E-002     1.4425188230043224E-015
   2.2499999999999999E-002     4.2305451106390383E-015
   2.2875000000000000E-002     1.2179266839013980E-014
   2.3250000000000000E-002     3.4417562852159341E-014
   2.3625000000000000E-002     9.5469815568248466E-014
   2.4000000000000000E-002     2.5993191922825315E-013
   2.4375000000000001E-002     6.9462611044721057E-013
   2.4750000000000001E-002     1.8218944802853967E-012
   2.5125000000000001E-002     4.6898725392596878E-012
   2.5500000000000002E-002     1.1848093970587472E-011
   2.5875000000000002E-002     2.9374185186814150E-011
   2.6250000000000002E-002     7.1464917268947921E-011
   2.6625000000000003E-002     1.7061357917075148E-010
   2.7000000000000003E-002     3.9966906831660786E-010
   2.7375000000000003E-002     9.1861506348715937E-010
   2.7750000000000004E-002     2.0715105512874816E-009
   2.8125000000000004E-002     4.5828097727269207E-009
   2.8500000000000004E-002     9.9459198104854236E-009
   2.8875000000000005E-002     2.1173279481705295E-008
   2.9250000000000005E-002     4.4210700518325899E-008
   2.9625000000000005E-002     9.0538549535022028E-008
   3.0000000000000006E-002     1.8182806521417752E-007
   3.0375000000000006E-002     3.5806733691652067E-007
   3.0750000000000000E-002     6.9135745092646376E-007
   3.1125000000000000E-002     1.3086484585058655E-006
   3.1500000000000000E-002     2.4280824503842245E-006
   3.1875000000000001E-002     4.4154097039630344E-006
   3.2250000000000001E-002     7.8681390323788527E-006
   3.2625000000000001E-002     1.3736895182123160E-005
   3.3000000000000002E-002     2.3493394946643715E-005
   3.3375000000000002E-002     3.9349481136518910E-005
   3.3750000000000002E-002     6.4531886202659253E-005
   3.4125000000000003E-002     1.0359179824830780E-004
   3.4500000000000003E-002     1.6273034916581191E-004
   3.4875000000000003E-002     2.5005741976744702E-004
   3.5250000000000004E-002     3.7573041161948417E-004
   3.5625000000000004E-002     5.5178102852261352E-004
   3.6000000000000004E-002     7.9159119173949181E-004
   3.6375000000000005E-002     1.1086091794906153E-003
   3.6750000000000005E-002     1.5146101861966623E-003
   3.7125000000000005E-002     2.0167949071979272E-003
   3.7500000000000006E-002     2.6145770350524166E-003
   3.7875000000000006E-002     3.2956714468581989E-003
   3.8250000000000006E-002     4.0322469113564683E-003
   3.8625000000000007E-002     4.7784544005259159E-003
   3.9000000000000000E-002     5.4690625702008243E-003
   3.9375000000000000E-002     6.0221168049981993E-003
   3.9750000000000001E-002     6.3435244528137029E-003
   4.0125000000000001E-002     6.3388989986804829E-003
   4.0500000000000001E-002     5.9258633866787862E-003
   4.0875000000000002E-002     5.0506148105500647E-003
   4.1250000000000002E-002     3.7049501954111042E-003
   4.1625000000000002E-002     1.9403242407199910E-003
   4.2000000000000003E-002    -1.2891299744930166E-004
   4.2375000000000003E-002    -2.3235096182495489E-003
   4.2750000000000003E-002    -4.4207786854706579E-003
   4.3125000000000004E-002    -6.1799821986514465E-003
   4.3500000000000004E-002    -7.3822830329116976E-003
   4.3875000000000004E-002    -7.8752264670296501E-003
   4.4250000000000005E-002    -7.6140816523018427E-003
   4.4625000000000005E-002    -6.6960290568719681E-003
   4.5000000000000005E-002    -5.3647351924321282E-003
   4.5375000000000006E-002    -4.0128553582416768E-003
   4.5750000000000006E-002    -3.1219073695313813E-003
   4.6125000000000006E-002    -3.2167743803531330E-003
   4.6500000000000007E-002    -4.7731741005594191E-003
   4.6875000000000007E-002    -8.1348362179622085E-003
   4.7250000000000000E-002    -1.3442101715195613E-002
   4.7625000000000001E-002    -2.0566360291000722E-002
   4.8000000000000001E-002    -2.9114286573410690E-002
   4.8375000000000001E-002    -3.8421627413359666E-002
   4.8750000000000002E-002    -4.7645918794042841E-002
   4.9125000000000002E-002    -5.5833071574282259E-002
   4.9500000000000002E-002    -6.2046932603069094E-002
   4.9875000000000003E-002    -6.5470720346003319E-002
   5.0250000000000003E-002    -6.5514891543670101E-002
   5.0625000000000003E-002    -6.1872626670146813E-002
   5.1000000000000004E-002    -5.4552904958870024E-002
   5.1375000000000004E-002    -4.3873071434296057E-002
   5.1750000000000004E-002    -3.0392363916728865E-002
   5.2125000000000005E-002    -1.4851045890208643E-002
   5.2500000000000005E-002     1.9439027027745009E-003
   5.2875000000000005E-002     1.9189733366899449E-002
   5.3250000000000006E-002     3.6172823552214586E-002
   5.3625000000000006E-002     5.2332600867602122E-002
   5.4000000000000006E-002     6.7270505480494250E-002
   5.4375000000000007E-002     8.0739777729555040E-002
   5.4750000000000007E-002     9.2637433515516204E-002
   5.5125000000000007E-002    0.10292022366687348     
   5.5500000000000008E-002    0.11158227668881318     
   5.5875000000000008E-002    0.11858605226399682     
   5.6250000000000008E-002    0.12381749289558644     
   5.6625000000000009E-002    0.12709306810210416     
   5.7000000000000009E-002    0.12813060937598955     
   5.7375000000000009E-002    0.12661075546112519     
   5.7750000000000010E-002    0.12218429158381697     
   5.8125000000000010E-002    0.11455735341379258     
   5.8500000000000010E-002    0.10352202543393937     
   5.8875000000000011E-002     8.9020858450684387E-002
   5.9250000000000011E-002     7.1179212875760817E-002
   5.9624999999999997E-002     5.0308116220574906E-002
   5.9999999999999998E-002     2.6930324537922462E-002
   6.0374999999999998E-002     1.7132217186715260E-003
   6.0749999999999998E-002    -2.4492726495636767E-002
   6.1124999999999999E-002    -5.0804958888399636E-002
   6.1499999999999999E-002    -7.6243086339401439E-002
   6.1874999999999999E-002    -9.9867750082046597E-002
   6.2250000000000000E-002   -0.12079018364318875     
   6.2625000000000000E-002   -0.13817993234371267     
   6.3000000000000000E-002   -0.15137847454699471     
   6.3375000000000001E-002   -0.15983050253338799     
   6.3750000000000001E-002   -0.16318625536494985     
   6.4125000000000001E-002   -0.16125051893967540     
   6.4500000000000002E-002   -0.15403690772528938     
   6.4875000000000002E-002   -0.14176313251462230     
   6.5250000000000002E-002   -0.12482303769602116     
   6.5625000000000003E-002   -0.10381323748858817     
   6.6000000000000003E-002    -7.9487676513754130E-002
   6.6375000000000003E-002    -5.2757356202881633E-002
   6.6750000000000004E-002    -2.4654435735192250E-002
   6.7125000000000004E-002     3.6965154954918880E-003
   6.7500000000000004E-002     3.1119028517707609E-002
   6.7875000000000005E-002     5.6371079194138307E-002
   6.8250000000000005E-002     7.8270660478832160E-002
   6.8625000000000005E-002     9.5650020332790520E-002
   6.9000000000000006E-002    0.10747931247006284     
   6.9375000000000006E-002    0.11290269430559616     
   6.9750000000000006E-002    0.11127829820982416     
   7.0125000000000007E-002    0.10234297402771572     
   7.0500000000000007E-002     8.6162163482450121E-002
   7.0875000000000007E-002     6.3285458116928095E-002
   7.1250000000000008E-002     3.4706391960337729E-002
   7.1625000000000008E-002     1.9028259598310518E-003
   7.2000000000000008E-002    -3.3247265593223288E-002
   7.2375000000000009E-002    -6.8513781902115156E-002
   7.2750000000000009E-002   -0.10149671566191273     
   7.3125000000000009E-002   -0.12976384663489338     
   7.3500000000000010E-002   -0.15105160924846073     
   7.3875000000000010E-002   -0.16349421466306863     
   7.4250000000000010E-002   -0.16576604495330444     
   7.4625000000000011E-002   -0.15734256408619945     
   7.5000000000000011E-002   -0.13842983773854406     
   7.5375000000000011E-002   -0.11017115223501600     
   7.5750000000000012E-002    -7.4462911916397007E-002
   7.6124999999999998E-002    -3.3794968398271258E-002
   7.6499999999999999E-002     8.8784217081144950E-003
   7.6874999999999999E-002     5.0591469145736742E-002
   7.7249999999999999E-002     8.8518393875163928E-002
   7.7625000000000000E-002    0.12035009504118938     
   7.8000000000000000E-002    0.14448375440855818     
   7.8375000000000000E-002    0.16015577579262852     
   7.8750000000000001E-002    0.16744240163598245     
   7.9125000000000001E-002    0.16714319569111008     
   7.9500000000000001E-002    0.16060672138292237     
   7.9875000000000002E-002    0.14945086340241964     
   8.0250000000000002E-002    0.13526829072001723     
   8.0625000000000002E-002    0.11943490941193169     
   8.1000000000000003E-002    0.10285715008002477     
   8.1375000000000003E-002     8.5983467675298353E-002
   8.1750000000000003E-002     6.8823455087642732E-002
   8.2125000000000004E-002     5.1003676729839464E-002
   8.2500000000000004E-002     3.2141263723672556E-002
   8.2875000000000004E-002     1.1883408685897266E-002
   8.3250000000000005E-002    -9.7430734010806909E-003
   8.3625000000000005E-002    -3.2211524053112527E-002
   8.4000000000000005E-002    -5.4522006400085241E-002
   8.4375000000000006E-002    -7.5101469168819865E-002
   8.4750000000000006E-002    -9.2097827634979923E-002
   8.5125000000000006E-002   -0.10356324217772422     
   8.5500000000000007E-002   -0.10773269640397345     
   8.5875000000000007E-002   -0.10341308964043902     
   8.6250000000000007E-002    -9.0171297649005444E-002
   8.6625000000000008E-002    -6.8561717573398434E-002
   8.7000000000000008E-002    -4.0231766710163250E-002
   8.7375000000000008E-002    -7.7510932525220455E-003
   8.7750000000000009E-002     2.5522332584628778E-002
   8.8125000000000009E-002     5.5865291289223622E-002
   8.8500000000000009E-002     7.9630934485679150E-002
   8.8875000000000010E-002     9.3701938139358981E-002
   8.9250000000000010E-002     9.6017806176372705E-002
   8.9625000000000010E-002     8.5855983524033952E-002
   9.0000000000000011E-002     6.4011635283803853E-002
   9.0375000000000011E-002     3.2846853347447372E-002
   9.0750000000000011E-002    -4.0533711607967232E-003
   9.1125000000000012E-002    -4.2248721837330722E-002
   9.1500000000000012E-002    -7.6997627676064231E-002
   9.1875000000000012E-002   -0.10393565463606388     
   9.2250000000000013E-002   -0.11956670982368756     
   9.2624999999999999E-002   -0.12180697704689308     
   9.2999999999999999E-002   -0.11020845166396886     
   9.3375000000000000E-002    -8.6006299306444989E-002
   9.3750000000000000E-002    -5.2032051601518123E-002
   9.4125000000000000E-002    -1.2242979756471872E-002
   9.4500000000000001E-002     2.8689555409754285E-002
   9.4875000000000001E-002     6.5972232636854394E-002
   9.5250000000000001E-002     9.5307972269347577E-002
   9.5625000000000002E-002    0.11327149481624357     
   9.6000000000000002E-002    0.11783370373796251     
   9.6375000000000002E-002    0.10840522912273839     
   9.6750000000000003E-002     8.6023998671344803E-002
   9.7125000000000003E-002     5.3057194657954887E-002
   9.7500000000000003E-002     1.2987921504602699E-002
   9.7875000000000004E-002    -2.9978988421660940E-002
   9.8250000000000004E-002    -7.1484844210684489E-002
   9.8625000000000004E-002   -0.10735087567268339     
   9.9000000000000005E-002   -0.13411088909832414     
   9.9375000000000005E-002   -0.14923024819276098     
   9.9750000000000005E-002   -0.15133244555118364     
  0.10012500000000001        -0.14025507743238419     
  0.10050000000000001        -0.11691589024139459     
  0.10087500000000001         -8.3248235748362570E-002
  0.10125000000000001         -4.1898338492772302E-002
  0.10162500000000001          3.9709522133253294E-003
  0.10200000000000001          5.0849764888060055E-002
  0.10237500000000001          9.5129038177230674E-002
  0.10275000000000001         0.13327937429412187     
  0.10312500000000001         0.16195875949789112     
  0.10350000000000001         0.17831389471743125     
  0.10387500000000001         0.18013938003069324     
  0.10425000000000001         0.16612685680628969     
  0.10462500000000001         0.13623649745049382     
  0.10500000000000001          9.1650752091058552E-002
  0.10537500000000001          3.5118654218282794E-002
  0.10575000000000001         -2.9382302954903350E-002
  0.10612500000000001         -9.6697803418267878E-002
  0.10650000000000001        -0.16110936132913339     
  0.10687500000000001        -0.21682516075181746     
  0.10725000000000001        -0.25859719488179134     
  0.10762500000000001        -0.28242477983285130     
  0.10800000000000001        -0.28583344946396250     
  0.10837500000000001        -0.26830335830518470     
  0.10875000000000001        -0.23116239225868962     
  0.10912500000000000        -0.17743729044036655     
  0.10950000000000000        -0.11138486734870742     
  0.10987500000000000         -3.7949612892043960E-002
  0.11025000000000000          3.7661186225447785E-002
  0.11062500000000001         0.11073773456461623     
  0.11100000000000000         0.17714940789758293     
  0.11137500000000002         0.23389250934149317     
  0.11175000000000000         0.27889480816468659     
  0.11212500000000002         0.31124174474703770     
  0.11250000000000000         0.33088835705578101     
  0.11287500000000002         0.33854207038679462     
  0.11325000000000000         0.33552854091566287     
  0.11362500000000002         0.32354012014100142     
  0.11400000000000000         0.30455546009759338     
  0.11437500000000002         0.28053461105460797     
  0.11475000000000000         0.25343700158211568     
  0.11512500000000002         0.22477842060328768     
  0.11550000000000001         0.19556550155285751     
  0.11587500000000002         0.16613006328203594     
  0.11625000000000001         0.13573468883160705     
  0.11662500000000002         0.10287920777649839     
  0.11700000000000001          6.5065869105956881E-002
  0.11737499999999999          1.9227574271819703E-002
  0.11775000000000001         -3.7782282839845915E-002
  0.11812499999999999        -0.10870300077553487     
  0.11850000000000001        -0.19506080898710090     
  0.11887499999999999        -0.29657899585106728     
  0.11925000000000001        -0.41057189320353932     
  0.11962500000000000        -0.53167747565931189     
  0.12000000000000001        -0.65194664419741943     
  0.12037500000000000        -0.76136686584804369     
  0.12075000000000001        -0.84873812201804810     
  0.12112500000000000        -0.90286567170712395     
  0.12150000000000001        -0.91404873821853938     
  0.12187500000000000        -0.87540961772587278     
  0.12225000000000001        -0.78404217757780592     
  0.12262500000000000        -0.64171919238785069     
  0.12300000000000001        -0.45504340691601119     
  0.12337500000000000        -0.23490410241187398     
  0.12375000000000001          4.5362382951488200E-003
  0.12412500000000000         0.24744754660233104     
  0.12450000000000001         0.47799161911744537     
  0.12487500000000000         0.68207064682081386     
  0.12525000000000003         0.84864843658163458     
  0.12562499999999999         0.97051125476676825     
  0.12600000000000000          1.0448095352513997     
  0.12637500000000002          1.0724104050490906     
  0.12675000000000003          1.0572149645864759     
  0.12712499999999999          1.0048180298098617     
  0.12750000000000000         0.92170366332930986     
  0.12787500000000002         0.81378540666065335     
  0.12825000000000003         0.68620630893149448     
  0.12862499999999999         0.54298866804961565     
  0.12900000000000000         0.38708381953585058     
  0.12937500000000002         0.22161952040236443     
  0.12975000000000003          4.9934493726777496E-002
  0.13012499999999999        -0.12340231850957228     
  0.13050000000000000        -0.29225982744345225     
  0.13087500000000002        -0.44905810958228742     
  0.13125000000000003        -0.58497056043029516     
  0.13162499999999999        -0.69100195939893028     
  0.13200000000000001        -0.75894644364244412     
  0.13237500000000002        -0.78242821737190649     
  0.13275000000000003        -0.75818241999882030     
  0.13312499999999999        -0.68647492645956598     
  0.13350000000000001        -0.57204540593632158     
  0.13387500000000002        -0.42363853620942993     
  0.13424999999999998        -0.25338036865009628     
  0.13462499999999999         -7.6373334492374378E-002
  0.13500000000000001          9.1351523559234815E-002
  0.13537500000000002         0.23399797945851786     
  0.13574999999999998         0.33775468840321604     
  0.13612500000000000         0.39268407502739999     
  0.13650000000000001         0.39354896042202414     
  0.13687500000000002         0.34096889993565538     
  0.13724999999999998         0.24139774143900627     
  0.13762500000000000         0.10665217318928744     
  0.13800000000000001         -4.7272189924799257E-002
  0.13837500000000003        -0.20235128186760618     
  0.13874999999999998        -0.34040350010645348     
  0.13912500000000000        -0.44549382697438955     
  0.13950000000000001        -0.50596640442150154     
  0.13987500000000003        -0.51582478941466281     
  0.14024999999999999        -0.47542530441044362     
  0.14062500000000000        -0.39115199577231918     
  0.14100000000000001        -0.27435446232994753     
  0.14137500000000003        -0.13937693392929223     
  0.14174999999999999         -1.7801579010307544E-003
  0.14212500000000000         0.12440030494854543     
  0.14250000000000002         0.22802531645338650     
  0.14287500000000003         0.30243383876595309     
  0.14324999999999999         0.34563385679387093     
  0.14362500000000000         0.35999724567082381     
  0.14400000000000002         0.35132109633952169     
  0.14437500000000003         0.32704766779120031     
  0.14474999999999999         0.29491857688758205     
  0.14512500000000000         0.26113624398659352     
  0.14550000000000002         0.22970450328688619     
  0.14587500000000003         0.20182155266359358     
  0.14624999999999999         0.17618411050765648     
  0.14662500000000001         0.14978353821308693     
  0.14700000000000002         0.11900912974875796     
  0.14737500000000003          8.0911211904145575E-002
  0.14774999999999999          3.4292742940375431E-002
  0.14812500000000001         -1.9741974008907509E-002
  0.14850000000000002         -7.7646877216459742E-002
  0.14887500000000004        -0.13379304355586003     
  0.14924999999999999        -0.18142047138407585     
  0.14962500000000001        -0.21372838803052296     
  0.15000000000000002        -0.22512586005961524     
  0.15037499999999998        -0.21237466262400373     
  0.15075000000000000        -0.17514416182501463     
  0.15112500000000001        -0.11631325643238855     
  0.15150000000000002         -4.1775989220763809E-002
  0.15187499999999998          4.0299481220530231E-002
  0.15225000000000000         0.12060554412203772     
  0.15262500000000001         0.18976419812181677     
  0.15300000000000002         0.23964729991866093     
  0.15337499999999998         0.26436628544805202     
  0.15375000000000000         0.26099567493649278     
  0.15412500000000001         0.22997208059555618     
  0.15450000000000003         0.17471726274852073     
  0.15487499999999998         0.10156171691307581     
  0.15525000000000000          1.8326322876205392E-002
  0.15562500000000001         -6.6225125041541988E-002
  0.15600000000000003        -0.14361557731555225     
  0.15637499999999999        -0.20679906022938219     
  0.15675000000000000        -0.25063681671466398     
  0.15712500000000001        -0.27230748503021840     
  0.15750000000000003        -0.27165030061261758     
  0.15787499999999999        -0.25060498066602843     
  0.15825000000000000        -0.21276154879016529     
  0.15862500000000002        -0.16306960481475591     
  0.15900000000000003        -0.10658769775125959     
  0.15937499999999999         -4.8418927101087486E-002
  0.15975000000000000          6.8525222103568151E-003
  0.16012500000000002          5.5813032807924323E-002
  0.16050000000000003          9.5664177477691376E-002
  0.16087499999999999         0.12476265333085551     
  0.16125000000000000         0.14236781379735977     
  0.16162500000000002         0.14847170235530910     
  0.16200000000000003         0.14355977109841078     
  0.16237499999999999         0.12904088625294013     
  0.16275000000000001         0.10646850302859201     
  0.16312500000000002          7.8047217359072191E-002
  0.16350000000000003          4.6296032760995594E-002
  0.16387499999999999          1.3751764130730856E-002
  0.16425000000000001         -1.6988147953063887E-002
  0.16462500000000002         -4.3531549363047178E-002
  0.16500000000000004         -6.4187765311758654E-002
  0.16537499999999999         -7.7769551043967711E-002
  0.16575000000000001         -8.3926092982431255E-002
  0.16612500000000002         -8.3159943038904116E-002
  0.16650000000000004         -7.6426383629916689E-002
  0.16687500000000000         -6.5357554449409494E-002
  0.16725000000000001         -5.1678113527209329E-002
  0.16762500000000002         -3.7067968342503241E-002
  0.16799999999999998         -2.3029992929498283E-002
  0.16837500000000000         -1.0601868023806258E-002
  0.16875000000000001         -5.7350762964900482E-004
  0.16912500000000003          6.7685695014279724E-003
  0.16949999999999998          1.1510021520179301E-002
  0.16987500000000000          1.3788327384338640E-002
  0.17025000000000001          1.4009786473830926E-002
  0.17062500000000003          1.2539580118594372E-002
  0.17099999999999999          9.6779594914443087E-003
  0.17137500000000000          5.7777551924876394E-003
  0.17175000000000001          8.5216774159055375E-004
  0.17212500000000003         -4.8708489268980346E-003
  0.17249999999999999         -1.1268831285383814E-002
  0.17287500000000000         -1.7920887010666253E-002
  0.17325000000000002         -2.3851125185050146E-002
  0.17362500000000003         -2.7709048557166147E-002
  0.17399999999999999         -2.7316350345556791E-002
  0.17437500000000000         -2.0060123106223002E-002
  0.17475000000000002         -3.5420810455846635E-003
  0.17512500000000003          2.3971270398590393E-002
  0.17549999999999999          6.2259188630211487E-002
  0.17587500000000000         0.10850295445672771     
  0.17625000000000002         0.15677843217428167     
  0.17662500000000003         0.19789369743288737     
  0.17699999999999999         0.22075764611045853     
  0.17737500000000000         0.21426419135654437     
  0.17775000000000002         0.16941275016149818     
  0.17812500000000003          8.2789159520704314E-002
  0.17849999999999999         -4.1644098082398495E-002
  0.17887500000000001        -0.19122487364035390     
  0.17925000000000002        -0.34472200843931294     
  0.17962500000000003        -0.47506735139486028     
  0.17999999999999999        -0.55335058891881683     
  0.18037500000000001        -0.55404336760476380     
  0.18075000000000002        -0.46061518600318785     
  0.18112500000000004        -0.27004721708789470     
  0.18149999999999999          4.4313923639287545E-003
  0.18187500000000001         0.33346462492243967     
  0.18225000000000002         0.67456407432398957     
  0.18262500000000004         0.97782361767724912     
  0.18300000000000000          1.1933239480172033     
  0.18337500000000001          1.2792383747341451     
  0.18375000000000002          1.2087450413187404     
  0.18412499999999998         0.97552370035237379     
  0.18450000000000000         0.59540660982425209     
  0.18487500000000001         0.10522558252485226     
  0.18525000000000003        -0.44157195122806003     
  0.18562499999999998        -0.98194595272704177     
  0.18600000000000000         -1.4515064336607033     
  0.18637500000000001         -1.7928249029580567     
  0.18675000000000003         -1.9626886024464869     
  0.18712499999999999         -1.9375075975907428     
  0.18750000000000000         -1.7155935364931034     
  0.18787500000000001         -1.3171824712503208     
  0.18825000000000003        -0.78127218171062429     
  0.18862499999999999        -0.16105452701855238     
  0.18900000000000000         0.48270936334944103     