  -1.4999999999999999E-002     0.0000000000000000     
  -1.4624999999999999E-002     0.0000000000000000     
  -1.4249999999999999E-002     0.0000000000000000     
  -1.3874999999999998E-002     0.0000000000000000     
  -1.3500000000000000E-002     0.0000000000000000     
  -1.3125000000000000E-002     0.0000000000000000     
  -1.2749999999999999E-002     0.0000000000000000     
  -1.2374999999999999E-002     0.0000000000000000     
  -1.2000000000000000E-002     0.0000000000000000     
  -1.1625000000000000E-002     0.0000000000000000     
  -1.1250000000000000E-002     0.0000000000000000     
  -1.0874999999999999E-002     0.0000000000000000     
  -1.0499999999999999E-002     0.0000000000000000     
  -1.0124999999999999E-002     0.0000000000000000     
  -9.7499999999999983E-003     0.0000000000000000     
  -9.3749999999999979E-003     0.0000000000000000     
  -8.9999999999999993E-003     0.0000000000000000     
  -8.6249999999999990E-003     0.0000000000000000     
  -8.2500000000000004E-003     0.0000000000000000     
  -7.8750000000000001E-003     0.0000000000000000     
  -7.4999999999999989E-003     0.0000000000000000     
  -7.1249999999999994E-003     0.0000000000000000     
  -6.7499999999999991E-003     0.0000000000000000     
  -6.3749999999999987E-003     0.0000000000000000     
  -5.9999999999999984E-003     0.0000000000000000     
  -5.6249999999999998E-003     0.0000000000000000     
  -5.2499999999999995E-003     0.0000000000000000     
  -4.8749999999999991E-003     0.0000000000000000     
  -4.4999999999999988E-003     0.0000000000000000     
  -4.1249999999999985E-003     0.0000000000000000     
  -3.7499999999999981E-003     0.0000000000000000     
  -3.3749999999999995E-003     0.0000000000000000     
  -2.9999999999999992E-003     0.0000000000000000     
  -2.6249999999999989E-003     0.0000000000000000     
  -2.2499999999999985E-003     0.0000000000000000     
  -1.8749999999999982E-003     0.0000000000000000     
  -1.4999999999999996E-003     0.0000000000000000     
  -1.1249999999999993E-003     0.0000000000000000     
  -7.4999999999999893E-004     0.0000000000000000     
  -3.7499999999999860E-004     0.0000000000000000     
   1.7347234759768071E-018     0.0000000000000000     
   3.7500000000000207E-004     0.0000000000000000     
   7.5000000000000067E-004     0.0000000000000000     
   1.1250000000000010E-003     0.0000000000000000     
   1.5000000000000013E-003     0.0000000000000000     
   1.8750000000000017E-003     0.0000000000000000     
   2.2500000000000020E-003     0.0000000000000000     
   2.6250000000000023E-003     0.0000000000000000     
   3.0000000000000027E-003     0.0000000000000000     
   3.3750000000000030E-003     0.0000000000000000     
   3.7499999999999999E-003     0.0000000000000000     
   4.1250000000000002E-003     0.0000000000000000     
   4.5000000000000005E-003     0.0000000000000000     
   4.8750000000000009E-003     0.0000000000000000     
   5.2500000000000012E-003     0.0000000000000000     
   5.6250000000000015E-003     0.0000000000000000     
   6.0000000000000019E-003     0.0000000000000000     
   6.3750000000000022E-003     0.0000000000000000     
   6.7500000000000025E-003     0.0000000000000000     
   7.1250000000000029E-003     0.0000000000000000     
   7.5000000000000032E-003     0.0000000000000000     
   7.8750000000000001E-003     0.0000000000000000     
   8.2500000000000004E-003     0.0000000000000000     
   8.6250000000000007E-003     0.0000000000000000     
   9.0000000000000011E-003     0.0000000000000000     
   9.3750000000000014E-003     0.0000000000000000     
   9.7500000000000017E-003     0.0000000000000000     
   1.0125000000000002E-002     0.0000000000000000     
   1.0500000000000002E-002     0.0000000000000000     
   1.0875000000000003E-002     0.0000000000000000     
   1.1250000000000003E-002     0.0000000000000000     
   1.1625000000000003E-002     0.0000000000000000     
   1.2000000000000000E-002     0.0000000000000000     
   1.2375000000000001E-002     0.0000000000000000     
   1.2750000000000001E-002     0.0000000000000000     
   1.3125000000000001E-002     0.0000000000000000     
   1.3500000000000002E-002     0.0000000000000000     
   1.3875000000000002E-002     0.0000000000000000     
   1.4250000000000002E-002     0.0000000000000000     
   1.4625000000000003E-002     0.0000000000000000     
   1.5000000000000003E-002     0.0000000000000000     
   1.5375000000000003E-002     0.0000000000000000     
   1.5750000000000004E-002     0.0000000000000000     
   1.6125000000000000E-002     0.0000000000000000     
   1.6500000000000001E-002     0.0000000000000000     
   1.6875000000000001E-002     2.1282130435390383E-051
   1.7250000000000001E-002    -2.8401337149962111E-038
   1.7625000000000002E-002     3.1145731268584169E-036
   1.8000000000000002E-002     1.4066436531030030E-034
   1.8375000000000002E-002     1.5583519706847118E-033
   1.8750000000000003E-002     2.5333322555831747E-032
   1.9125000000000003E-002     8.1735938087949620E-033
   1.9500000000000003E-002    -1.1219113387352867E-030
   1.9875000000000004E-002    -1.2267220360507358E-031
   2.0250000000000004E-002     3.5469822994184082E-029
   2.0625000000000004E-002    -1.3173771541665141E-028
   2.1000000000000005E-002    -1.4240789832864827E-028
   2.1375000000000005E-002     3.2853718632866877E-027
   2.1750000000000005E-002    -1.8010162840242249E-026
   2.2125000000000006E-002     6.7869303790914092E-026
   2.2499999999999999E-002    -2.3150590594237949E-025
   2.2875000000000000E-002     1.3548536071282304E-024
   2.3250000000000000E-002     3.8050776886795057E-024
   2.3625000000000000E-002     1.6226949859163177E-023
   2.4000000000000000E-002     5.9677654276372937E-023
   2.4375000000000001E-002     2.2671639030992974E-022
   2.4750000000000001E-002     8.3657316610311419E-022
   2.5125000000000001E-002     3.0365279218775362E-021
   2.5500000000000002E-002     1.0820116862947841E-020
   2.5875000000000002E-002     3.7854227365323223E-020
   2.6250000000000002E-002     1.3003146569522525E-019
   2.6625000000000003E-002     4.3853911936681687E-019
   2.7000000000000003E-002     1.4520855824243311E-018
   2.7375000000000003E-002     4.7206105671085278E-018
   2.7750000000000004E-002     1.5066438293902855E-017
   2.8125000000000004E-002     4.7209037818869332E-017
   2.8500000000000004E-002     1.4522209910803329E-016
   2.8875000000000005E-002     4.3855374342206353E-016
   2.9250000000000005E-002     1.3001425273283788E-015
   2.9625000000000005E-002     3.7837236364170750E-015
   3.0000000000000006E-002     1.0809449820028877E-014
   3.0375000000000006E-002     3.0313176145662644E-014
   3.0750000000000000E-002     8.3442795559914920E-014
   3.1125000000000000E-002     2.2545742296142838E-013
   3.1500000000000000E-002     5.9792398648358922E-013
   3.1875000000000001E-002     1.5563879009413564E-012
   3.2250000000000001E-002     3.9761789541353408E-012
   3.2625000000000001E-002     9.9694760011077000E-012
   3.3000000000000002E-002     2.4531563921767148E-011
   3.3375000000000002E-002     5.9238019418410463E-011
   3.3750000000000002E-002     1.4037291068840492E-010
   3.4125000000000003E-002     3.2640018026939526E-010
   3.4500000000000003E-002     7.4470140276906336E-010
   3.4875000000000003E-002     1.6670756157837214E-009
   3.5250000000000004E-002     3.6613577753258901E-009
   3.5625000000000004E-002     7.8889027730621528E-009
   3.6000000000000004E-002     1.6674483928772553E-008
   3.6375000000000005E-002     3.4571142166126816E-008
   3.6750000000000005E-002     7.0302820551338205E-008
   3.7125000000000005E-002     1.4021242447123626E-007
   3.7500000000000006E-002     2.7423255899525959E-007
   3.7875000000000006E-002     5.2593177378213389E-007
   3.8250000000000006E-002     9.8893136256402592E-007
   3.8625000000000007E-002     1.8229815026114879E-006
   3.9000000000000000E-002     3.2939294539436328E-006
   3.9375000000000000E-002     5.8333065672105253E-006
   3.9750000000000001E-002     1.0122914573918037E-005
   4.0125000000000001E-002     1.7211238842379337E-005
   4.0500000000000001E-002     2.8665456798907786E-005
   4.0875000000000002E-002     4.6756902167840112E-005
   4.1250000000000002E-002     7.4675330348927845E-005
   4.1625000000000002E-002     1.1674439928510191E-004
   4.2000000000000003E-002     1.7860265487964260E-004
   4.2375000000000003E-002     2.6729781465794809E-004
   4.2750000000000003E-002     3.9119149150025731E-004
   4.3125000000000004E-002     5.5959699318686293E-004
   4.3500000000000004E-002     7.8205307379851797E-004
   4.3875000000000004E-002     1.0671249062932293E-003
   4.4250000000000005E-002     1.4207632238030974E-003
   4.4625000000000005E-002     1.8441650338408260E-003
   4.5000000000000005E-002     2.3314532073495718E-003
   4.5375000000000006E-002     2.8675035806470439E-003
   4.5750000000000006E-002     3.4261481358815325E-003
   4.6125000000000006E-002     3.9698524747771319E-003
   4.6500000000000007E-002     4.4505351448668774E-003
   4.6875000000000007E-002     4.8138701621961546E-003
   4.7250000000000000E-002     5.0033677353927683E-003
   4.7625000000000001E-002     4.9711031173885053E-003
   4.8000000000000001E-002     4.6831558952194615E-003
   4.8375000000000001E-002     4.1330462825124670E-003
   4.8750000000000002E-002     3.3444601430556312E-003
   4.9125000000000002E-002     2.3780669995933316E-003
   4.9500000000000002E-002     1.3274783527243595E-003
   4.9875000000000003E-002     3.0792450087236556E-004
   5.0250000000000003E-002    -5.5666389527365251E-004
   5.0625000000000003E-002    -1.1566206765847883E-003
   5.1000000000000004E-002    -1.4223756065185359E-003
   5.1375000000000004E-002    -1.3427203807749707E-003
   5.1750000000000004E-002    -9.8214493290972550E-004
   5.2125000000000005E-002    -4.8711084880194276E-004
   5.2500000000000005E-002    -7.0961231439126937E-005
   5.2875000000000005E-002     4.3671807112484630E-007
   5.3250000000000006E-002    -5.4285353898314548E-004
   5.3625000000000006E-002    -1.9486822404531663E-003
   5.4000000000000006E-002    -4.3757532273043520E-003
   5.4375000000000007E-002    -7.8784569689396896E-003
   5.4750000000000007E-002    -1.2364435622731679E-002
   5.5125000000000007E-002    -1.7599933805157661E-002
   5.5500000000000008E-002    -2.3219530669485785E-002
   5.5875000000000008E-002    -2.8767584113580161E-002
   5.6250000000000008E-002    -3.3737551674717356E-002
   5.6625000000000009E-002    -3.7645167288592685E-002
   5.7000000000000009E-002    -4.0069369530202417E-002
   5.7375000000000009E-002    -4.0711424350832415E-002
   5.7750000000000010E-002    -3.9417905188557242E-002
   5.8125000000000010E-002    -3.6193178236955573E-002
   5.8500000000000010E-002    -3.1194688223585624E-002
   5.8875000000000011E-002    -2.4698799518350217E-002
   5.9250000000000011E-002    -1.7063884880185363E-002
   5.9624999999999997E-002    -8.7003042134162212E-003
   5.9999999999999998E-002    -1.0727479490691056E-005
   6.0374999999999998E-002     8.6361418276326724E-003
   6.0749999999999998E-002     1.6909931403526375E-002
   6.1124999999999999E-002     2.4560855547699073E-002
   6.1499999999999999E-002     3.1376109010186712E-002
   6.1874999999999999E-002     3.7206558004729690E-002
   6.2250000000000000E-002     4.1925928191542561E-002
   6.2625000000000000E-002     4.5417879236361924E-002
   6.3000000000000000E-002     4.7587280045964818E-002
   6.3375000000000001E-002     4.8328121682526239E-002
   6.3750000000000001E-002     4.7559563030995108E-002
   6.4125000000000001E-002     4.5228272363326383E-002
   6.4500000000000002E-002     4.1336794159044829E-002
   6.4875000000000002E-002     3.5985923350690882E-002
   6.5250000000000002E-002     2.9375309951847429E-002
   6.5625000000000003E-002     2.1844041654209084E-002
   6.6000000000000003E-002     1.3866951066733559E-002
   6.6375000000000003E-002     6.0250160139730270E-003
   6.6750000000000004E-002    -1.0254814466051276E-003
   6.7125000000000004E-002    -6.5975833754696725E-003
   6.7500000000000004E-002    -1.0096998692712297E-002
   6.7875000000000005E-002    -1.1042312051853881E-002
   6.8250000000000005E-002    -9.2002271186476681E-003
   6.8625000000000005E-002    -4.6253048648755377E-003
   6.9000000000000006E-002     2.3231714186899544E-003
   6.9375000000000006E-002     1.0942396240212114E-002
   6.9750000000000006E-002     2.0286459654292006E-002
   7.0125000000000007E-002     2.9205644952548130E-002
   7.0500000000000007E-002     3.6505534999004670E-002
   7.0875000000000007E-002     4.1080501824873064E-002
   7.1250000000000008E-002     4.2039900986365536E-002
   7.1625000000000008E-002     3.8858460543415407E-002
   7.2000000000000008E-002     3.1452141409886322E-002
   7.2375000000000009E-002     2.0214269926166484E-002
   7.2750000000000009E-002     5.9994008377757656E-003
   7.3125000000000009E-002    -9.9631294338171535E-003
   7.3500000000000010E-002    -2.6203933283655403E-002
   7.3875000000000010E-002    -4.1160220755637453E-002
   7.4250000000000010E-002    -5.3377447936075899E-002
   7.4625000000000011E-002    -6.1661376953387269E-002
   7.5000000000000011E-002    -6.5217182407735164E-002
   7.5375000000000011E-002    -6.3733824751436061E-002
   7.5750000000000012E-002    -5.7402951300300244E-002
   7.6124999999999998E-002    -4.6911248697509858E-002
   7.6499999999999999E-002    -3.3299835200964092E-002
   7.6874999999999999E-002    -1.7889787630392097E-002
   7.7249999999999999E-002    -2.0929846320779347E-003
   7.7625000000000000E-002     1.2744469768552483E-002
   7.8000000000000000E-002     2.5426379925935536E-002
   7.8375000000000000E-002     3.5084755716070733E-002
   7.8750000000000001E-002     4.1170615139969155E-002
   7.9125000000000001E-002     4.3494179457534227E-002
   7.9500000000000001E-002     4.2208709035271255E-002
   7.9875000000000002E-002     3.7715048442316060E-002
   8.0250000000000002E-002     3.0627070550506320E-002
   8.0625000000000002E-002     2.1654153671747285E-002
   8.1000000000000003E-002     1.1533509469640336E-002
   8.1375000000000003E-002     9.7874173718225620E-004
   8.1750000000000003E-002    -9.3885450000610535E-003
   8.2125000000000004E-002    -1.9077852998497732E-002
   8.2500000000000004E-002    -2.7715476301112089E-002
   8.2875000000000004E-002    -3.5127793969188748E-002
   8.3250000000000005E-002    -4.1251522464958931E-002
   8.3625000000000005E-002    -4.6222883070791969E-002
   8.4000000000000005E-002    -5.0297505624390920E-002
   8.4375000000000006E-002    -5.3814806048484147E-002
   8.4750000000000006E-002    -5.7209901592824047E-002
   8.5125000000000006E-002    -6.0846276035575929E-002
   8.5500000000000007E-002    -6.5036023328825798E-002
   8.5875000000000007E-002    -6.9896170104144617E-002
   8.6250000000000007E-002    -7.5314192381387618E-002
   8.6625000000000008E-002    -8.0930946640077189E-002
   8.7000000000000008E-002    -8.6096717956405902E-002
   8.7375000000000008E-002    -8.9982353121053613E-002
   8.7750000000000009E-002    -9.1630662250462111E-002
   8.8125000000000009E-002    -9.0055686730150353E-002
   8.8500000000000009E-002    -8.4422185968790253E-002
   8.8875000000000010E-002    -7.4097640348396707E-002
   8.9250000000000010E-002    -5.8794183483825362E-002
   8.9625000000000010E-002    -3.8592449182875903E-002
   9.0000000000000011E-002    -1.3934026911995545E-002
   9.0375000000000011E-002     1.4341196968222808E-002
   9.0750000000000011E-002     4.5163603099858521E-002
   9.1125000000000012E-002     7.7198765209545744E-002
   9.1500000000000012E-002    0.10899413064631358     
   9.1875000000000012E-002    0.13905816015704364     
   9.2250000000000013E-002    0.16585601257811122     
   9.2624999999999999E-002    0.18794683588191818     
   9.2999999999999999E-002    0.20399541946349842     
   9.3375000000000000E-002    0.21282635120001644     
   9.3750000000000000E-002    0.21351937498023890     
   9.4125000000000000E-002    0.20549286819421769     
   9.4500000000000001E-002    0.18853074167415459     
   9.4875000000000001E-002    0.16296178619703716     
   9.5250000000000001E-002    0.12959619993719237     
   9.5625000000000002E-002     8.9827852349744913E-002
   9.6000000000000002E-002     4.5545053656678873E-002
   9.6375000000000002E-002    -9.6281311214992159E-004
   9.6750000000000003E-002    -4.7099316098722394E-002
   9.7125000000000003E-002    -9.0236752031135764E-002
   9.7500000000000003E-002   -0.12786121389484589     
   9.7875000000000004E-002   -0.15776470280733734     
   9.8250000000000004E-002   -0.17830577849033152     
   9.8625000000000004E-002   -0.18846205143533190     
   9.9000000000000005E-002   -0.18793310931471235     
   9.9375000000000005E-002   -0.17718323204160211     
   9.9750000000000005E-002   -0.15731614688702644     
  0.10012500000000001        -0.13001279506154040     
  0.10050000000000001         -9.7328438506993742E-002
  0.10087500000000001         -6.1571585583233335E-002
  0.10125000000000001         -2.5030446316425401E-002
  0.10162500000000001          1.0166721323976630E-002
  0.10200000000000001          4.2130570134187334E-002
  0.10237500000000001          6.9420991307986388E-002
  0.10275000000000001          9.1037280146945038E-002
  0.10312500000000001         0.10640804608592373     
  0.10350000000000001         0.11538216638154708     
  0.10387500000000001         0.11816896347249264     
  0.10425000000000001         0.11518440888284634     
  0.10462500000000001         0.10705803960011349     
  0.10500000000000001          9.4516600270962564E-002
  0.10537500000000001          7.8265893074909915E-002
  0.10575000000000001          5.9116028675141610E-002
  0.10612500000000001          3.7843579440465999E-002
  0.10650000000000001          1.5235253715490981E-002
  0.10687500000000001         -7.8262653950562210E-003
  0.10725000000000001         -3.0469612245692921E-002
  0.10762500000000001         -5.1755162034236399E-002
  0.10800000000000001         -7.0756278877303569E-002
  0.10837500000000001         -8.6579014010162159E-002
  0.10875000000000001         -9.8469598800303954E-002
  0.10912500000000000        -0.10583035495728192     
  0.10950000000000000        -0.10827131746961730     
  0.10987500000000000        -0.10567209959322185     
  0.11025000000000000         -9.8159036478246142E-002
  0.11062500000000001         -8.6064104239069905E-002
  0.11100000000000000         -6.9918928972800998E-002
  0.11137500000000002         -5.0412649579980887E-002
  0.11175000000000000         -2.8331400876343577E-002
  0.11212500000000002         -4.5953065397255181E-003
  0.11250000000000000          1.9828311459013398E-002
  0.11287500000000002          4.3796962644471603E-002
  0.11325000000000000          6.6142141998762463E-002
  0.11362500000000002          8.5551407615895053E-002
  0.11400000000000000         0.10069081685683644     
  0.11437500000000002         0.11031882055049706     
  0.11475000000000000         0.11331377250183194     
  0.11512500000000002         0.10892153015635579     
  0.11550000000000001          9.6799415446367720E-002
  0.11587500000000002          7.7261654892901002E-002
  0.11625000000000001          5.1203331322530694E-002
  0.11662500000000002          2.0215193919095927E-002
  0.11700000000000001         -1.3516446069902883E-002
  0.11737499999999999         -4.7418511408986425E-002
  0.11775000000000001         -7.8657474577897166E-002
  0.11812499999999999        -0.10449722024714708     
  0.11850000000000001        -0.12253284924520758     
  0.11887499999999999        -0.13096247647472686     
  0.11925000000000001        -0.12884910652079445     
  0.11962500000000000        -0.11622669531632225     
  0.12000000000000001         -9.4194294272838958E-002
  0.12037500000000000         -6.4775776390996451E-002
  0.12075000000000001         -3.0855230057162366E-002
  0.12112500000000000          4.2439861767016290E-003
  0.12150000000000001          3.7010857415365764E-002
  0.12187500000000000          6.4197457208876402E-002
  0.12225000000000001          8.3209005687793353E-002
  0.12262500000000000          9.2406374860862991E-002
  0.12300000000000001          9.1289174754026814E-002
  0.12337500000000000          8.0588596078976893E-002
  0.12375000000000001          6.2221506002196322E-002
  0.12412500000000000          3.8855086851854723E-002
  0.12450000000000001          1.3746374778648648E-002
  0.12487500000000000         -9.7840275439957346E-003
  0.12525000000000003         -2.8860360084276660E-002
  0.12562499999999999         -4.1235665007763829E-002
  0.12600000000000000         -4.5725074268627659E-002
  0.12637500000000002         -4.2253335940556365E-002
  0.12675000000000003         -3.1719792769414223E-002
  0.12712499999999999         -1.5916758467306502E-002
  0.12750000000000000          2.7875010850426638E-003
  0.12787500000000002          2.1914185899861844E-002
  0.12825000000000003          3.9073787529995165E-002
  0.12862499999999999          5.2345163056881028E-002
  0.12900000000000000          6.0536396919352066E-002
  0.12937500000000002          6.3114364142047602E-002
  0.12975000000000003          6.0350108412593848E-002
  0.13012499999999999          5.3060201286901497E-002
  0.13050000000000000          4.2454110580326637E-002
  0.13087500000000002          2.9849145432436407E-002
  0.13125000000000003          1.6464970364782620E-002
  0.13162499999999999          3.2471857466997178E-003
  0.13200000000000001         -9.2650853973600539E-003
  0.13237500000000002         -2.0884874644245585E-002
  0.13275000000000003         -3.1707397535617306E-002
  0.13312499999999999         -4.1903778140228498E-002
  0.13350000000000001         -5.1541232703287115E-002
  0.13387500000000002         -6.0372142487379918E-002
  0.13424999999999998         -6.7765669207957707E-002
  0.13462499999999999         -7.2646330902458325E-002
  0.13500000000000001         -7.3675874809947042E-002
  0.13537500000000002         -6.9477600888999763E-002
  0.13574999999999998         -5.8899433513616803E-002
  0.13612500000000000         -4.1466458971550504E-002
  0.13650000000000001         -1.7500973058563997E-002
  0.13687500000000002          1.1614788489393997E-002
  0.13724999999999998          4.3451460511951694E-002
  0.13762500000000000          7.4811692043353181E-002
  0.13800000000000001         0.10200395612964455     
  0.13837500000000003         0.12140887231003017     
  0.13874999999999998         0.12987296850507818     
  0.13912500000000000         0.12537244630731542     
  0.13950000000000001         0.10719278292023257     
  0.13987500000000003          7.6258006049557403E-002
  0.14024999999999999          3.4993745495277076E-002
  0.14062500000000000         -1.2904581460933628E-002
  0.14100000000000001         -6.2789446858690770E-002
  0.14137500000000003        -0.10974753787526820     
  0.14174999999999999        -0.14908426189356488     
  0.14212500000000000        -0.17685192712443365     
  0.14250000000000002        -0.19030759075353237     
  0.14287500000000003        -0.18820880189586708     
  0.14324999999999999        -0.17078093700314184     
  0.14362500000000000        -0.13977213466755967     
  0.14400000000000002         -9.8144729659680435E-002
  0.14437500000000003         -4.9585414059976775E-002
  0.14474999999999999          1.6608592859102319E-003
  0.14512500000000000          5.1460768129431296E-002
  0.14550000000000002          9.6076786431016706E-002
  0.14587500000000003         0.13246281666117732     
  0.14624999999999999         0.15849018865010128     
  0.14662500000000001         0.17307263491001879     
  0.14700000000000002         0.17601190259951807     
  0.14737500000000003         0.16803497181100119     
  0.14774999999999999         0.15053803485196496     
  0.14812500000000001         0.12538228111331695     
  0.14850000000000002          9.4723197765567341E-002
  0.14887500000000004          6.0840948955022692E-002
  0.14924999999999999          2.6024382971641599E-002
  0.14962500000000001         -7.5684567134215461E-003
  0.15000000000000002         -3.7895487381302821E-002
  0.15037499999999998         -6.3166738858816698E-002
  0.15075000000000000         -8.1822325549709529E-002
  0.15112500000000001         -9.2699507000088041E-002
  0.15150000000000002         -9.5109732351636403E-002
  0.15187499999999998         -8.8968089557449739E-002
  0.15225000000000000         -7.4901214149342477E-002
  0.15262500000000001         -5.4309126104854333E-002
  0.15300000000000002         -2.9326348010113582E-002
  0.15337499999999998         -2.6553412765648156E-003
  0.15375000000000000          2.2619619877600756E-002
  0.15412500000000001          4.3521656155415367E-002
  0.15450000000000003          5.7430827636143690E-002
  0.15487499999999998          6.2519540870031018E-002
  0.15525000000000000          5.8143948079966833E-002
  0.15562500000000001          4.4784395408578259E-002
  0.15600000000000003          2.4206441121570520E-002
  0.15637499999999999         -7.9970779730302458E-004
  0.15675000000000000         -2.6973373782247099E-002
  0.15712500000000001         -5.0800029294532575E-002
  0.15750000000000003         -6.9228311993881575E-002
  0.15787499999999999         -8.0069964333712704E-002
  0.15825000000000000         -8.2281687532688913E-002
  0.15862500000000002         -7.6122867026913579E-002
  0.15900000000000003         -6.3068650237959892E-002
  0.15937499999999999         -4.5570057890348153E-002
  0.15975000000000000         -2.6575722815927613E-002
  0.16012500000000002         -9.1746537763926078E-003
  0.16050000000000003          3.9535154006448588E-003
  0.16087499999999999          1.0822223831849567E-002
  0.16125000000000000          1.0491825355853876E-002
  0.16162500000000002          2.9253543193584713E-003
  0.16200000000000003         -1.0821053258162539E-002
  0.16237499999999999         -2.8841764593671486E-002
  0.16275000000000001         -4.8848229159782271E-002
  0.16312500000000002         -6.7936973118359417E-002
  0.16350000000000003         -8.3337232281043977E-002
  0.16387499999999999         -9.2229202112745490E-002
  0.16425000000000001         -9.2177815361939197E-002
  0.16462500000000002         -8.1137203123613846E-002
  0.16500000000000004         -5.7784086472365374E-002
  0.16537499999999999         -2.1611166894208667E-002
  0.16575000000000001          2.6909057496726414E-002
  0.16612500000000002          8.6006233048216807E-002
  0.16650000000000004         0.15275051797071298     
  0.16687500000000000         0.22291694230188722     
  0.16725000000000001         0.29131330157172941     
  0.16762500000000002         0.35203538504616871     
  0.16799999999999998         0.39916579565254756     
  0.16837500000000000         0.42711893134976853     
  0.16875000000000001         0.43152728548421571     
  0.16912500000000003         0.40968962660660913     
  0.16949999999999998         0.36084652911266163     
  0.16987500000000000         0.28660549154751919     
  0.17025000000000001         0.19054736897578695     
  0.17062500000000003          7.8210749283661535E-002
  0.17099999999999999         -4.3753504189855623E-002
  0.17137500000000000        -0.16795206585556963     
  0.17175000000000001        -0.28709883064417346     
  0.17212500000000003        -0.39465855917074777     
  0.17249999999999999        -0.48521043291140875     
  0.17287500000000000        -0.55499481697362563     
  0.17325000000000002        -0.60196676855242803     
  0.17362500000000003        -0.62575841255297027     
  0.17399999999999999        -0.62757502392310904     
  0.17437500000000000        -0.60992235556252794     
  0.17475000000000002        -0.57595630105416906     
  0.17512500000000003        -0.52925837976217593     
  0.17549999999999999        -0.47332182572022308     
  0.17587500000000000        -0.41083555010077905     
  0.17625000000000002        -0.34362034343006492     
  0.17662500000000003        -0.27215402541282646     
  0.17699999999999999        -0.19575437213119531     
  0.17737500000000000        -0.11249219106743338     
  0.17775000000000002         -2.0014523734103819E-002
  0.17812500000000003          8.4117713543359243E-002
  0.17849999999999999         0.20151315647778054     
  0.17887500000000001         0.33202968637743202     
  0.17925000000000002         0.47325513367070138     
  0.17962500000000003         0.62002575689487216     
  0.17999999999999999         0.76441272245865599     
  0.18037500000000001         0.89612369844100936     
  0.18075000000000002          1.0033831481130742     
  0.18112500000000004          1.0742386334004246     
  0.18149999999999999          1.0979480141713542     
  0.18187500000000001          1.0664508763441469     
  0.18225000000000002         0.97562026906096211     
  0.18262500000000004         0.82619388734076193     
  0.18300000000000000         0.62406763530065623     
  0.18337500000000001         0.37997410078082350     
  0.18375000000000002         0.10886247588869771     
  0.18412499999999998        -0.17164603690801655     
  0.18450000000000000        -0.44264855162156769     
  0.18487500000000001        -0.68572871058982776     
  0.18525000000000003        -0.88475666891923277     
  0.18562499999999998         -1.0267933009751156     
  0.18600000000000000         -1.1036247743351315     
  0.18637500000000001         -1.1119016122334575     
  0.18675000000000003         -1.0533234524440664     
  0.18712499999999999        -0.93445219199251373     
  0.18750000000000000        -0.76580969823347267     
  0.18787500000000001        -0.56092976003885031     
  0.18825000000000003        -0.33558458374578382     
  0.18862499999999999        -0.10624604924137496     
  0.18900000000000000         0.11116243202607459     