  -1.4999999999999999E-002     0.0000000000000000     
  -1.4624999999999999E-002     0.0000000000000000     
  -1.4249999999999999E-002     0.0000000000000000     
  -1.3874999999999998E-002     0.0000000000000000     
  -1.3500000000000000E-002     0.0000000000000000     
  -1.3125000000000000E-002     0.0000000000000000     
  -1.2749999999999999E-002     0.0000000000000000     
  -1.2374999999999999E-002     0.0000000000000000     
  -1.2000000000000000E-002     0.0000000000000000     
  -1.1625000000000000E-002     0.0000000000000000     
  -1.1250000000000000E-002     0.0000000000000000     
  -1.0874999999999999E-002     0.0000000000000000     
  -1.0499999999999999E-002     0.0000000000000000     
  -1.0124999999999999E-002     0.0000000000000000     
  -9.7499999999999983E-003     0.0000000000000000     
  -9.3749999999999979E-003     0.0000000000000000     
  -8.9999999999999993E-003     0.0000000000000000     
  -8.6249999999999990E-003     0.0000000000000000     
  -8.2500000000000004E-003     0.0000000000000000     
  -7.8750000000000001E-003     0.0000000000000000     
  -7.4999999999999989E-003     0.0000000000000000     
  -7.1249999999999994E-003     0.0000000000000000     
  -6.7499999999999991E-003     0.0000000000000000     
  -6.3749999999999987E-003     0.0000000000000000     
  -5.9999999999999984E-003     0.0000000000000000     
  -5.6249999999999998E-003     0.0000000000000000     
  -5.2499999999999995E-003     0.0000000000000000     
  -4.8749999999999991E-003     0.0000000000000000     
  -4.4999999999999988E-003     0.0000000000000000     
  -4.1249999999999985E-003     0.0000000000000000     
  -3.7499999999999981E-003     0.0000000000000000     
  -3.3749999999999995E-003     0.0000000000000000     
  -2.9999999999999992E-003     0.0000000000000000     
  -2.6249999999999989E-003     0.0000000000000000     
  -2.2499999999999985E-003     0.0000000000000000     
  -1.8749999999999982E-003     0.0000000000000000     
  -1.4999999999999996E-003     0.0000000000000000     
  -1.1249999999999993E-003     0.0000000000000000     
  -7.4999999999999893E-004     0.0000000000000000     
  -3.7499999999999860E-004     0.0000000000000000     
   1.7347234759768071E-018     0.0000000000000000     
   3.7500000000000207E-004     0.0000000000000000     
   7.5000000000000067E-004     0.0000000000000000     
   1.1250000000000010E-003     0.0000000000000000     
   1.5000000000000013E-003     0.0000000000000000     
   1.8750000000000017E-003     0.0000000000000000     
   2.2500000000000020E-003     0.0000000000000000     
   2.6250000000000023E-003     0.0000000000000000     
   3.0000000000000027E-003     0.0000000000000000     
   3.3750000000000030E-003     0.0000000000000000     
   3.7499999999999999E-003     0.0000000000000000     
   4.1250000000000002E-003     0.0000000000000000     
   4.5000000000000005E-003     0.0000000000000000     
   4.8750000000000009E-003     0.0000000000000000     
   5.2500000000000012E-003     0.0000000000000000     
   5.6250000000000015E-003     0.0000000000000000     
   6.0000000000000019E-003     0.0000000000000000     
   6.3750000000000022E-003     0.0000000000000000     
   6.7500000000000025E-003     0.0000000000000000     
   7.1250000000000029E-003     0.0000000000000000     
   7.5000000000000032E-003     0.0000000000000000     
   7.8750000000000001E-003     0.0000000000000000     
   8.2500000000000004E-003     0.0000000000000000     
   8.6250000000000007E-003     0.0000000000000000     
   9.0000000000000011E-003     0.0000000000000000     
   9.3750000000000014E-003     0.0000000000000000     
   9.7500000000000017E-003     0.0000000000000000     
   1.0125000000000002E-002     0.0000000000000000     
   1.0500000000000002E-002     1.7395607877657302E-038
   1.0875000000000003E-002     3.1387715927645957E-036
   1.1250000000000003E-002     2.0651734769244416E-034
   1.1625000000000003E-002     1.7709684426788510E-033
   1.2000000000000000E-002     1.7047399486328133E-032
   1.2375000000000001E-002    -9.8167656004205732E-032
   1.2750000000000001E-002    -1.0118726062765919E-030
   1.3125000000000001E-002     3.7056861650964241E-030
   1.3500000000000002E-002     2.5403180394606117E-029
   1.3875000000000002E-002    -1.9563498499274971E-028
   1.4250000000000002E-002     3.6663033422609026E-028
   1.4625000000000003E-002     1.7153564727553758E-027
   1.5000000000000003E-002    -1.6418542346101780E-026
   1.5375000000000003E-002     7.5294904351036933E-026
   1.5750000000000004E-002    -2.8210926005647555E-025
   1.6125000000000000E-002     1.5369528227258668E-024
   1.6500000000000001E-002     5.8728883511477384E-024
   1.6875000000000001E-002     2.2936176144328070E-023
   1.7250000000000001E-002     8.5578434809152608E-023
   1.7625000000000002E-002     3.2439114287563605E-022
   1.8000000000000002E-002     1.2011666695023988E-021
   1.8375000000000002E-002     4.3710153531222194E-021
   1.8750000000000003E-002     1.5614763791777657E-020
   1.9125000000000003E-002     5.4769512018128674E-020
   1.9500000000000003E-002     1.8861648795616044E-019
   1.9875000000000004E-002     6.3774739777106078E-019
   2.0250000000000004E-002     2.1170901360275857E-018
   2.0625000000000004E-002     6.8999017904155152E-018
   2.1000000000000005E-002     2.2077695378482127E-017
   2.1375000000000005E-002     6.9352195130612521E-017
   2.1750000000000005E-002     2.1387156119066580E-016
   2.2125000000000006E-002     6.4747827904964224E-016
   2.2499999999999999E-002     1.9242705712979845E-015
   2.2875000000000000E-002     5.6138629245580694E-015
   2.3250000000000000E-002     1.6076945812898501E-014
   2.3625000000000000E-002     4.5193885364371074E-014
   2.4000000000000000E-002     1.2470281895318217E-013
   2.4375000000000001E-002     3.3773817079579263E-013
   2.4750000000000001E-002     8.9779429484209713E-013
   2.5125000000000001E-002     2.3423438412601867E-012
   2.5500000000000002E-002     5.9977155601531249E-012
   2.5875000000000002E-002     1.5071813942779115E-011
   2.6250000000000002E-002     3.7168258783663883E-011
   2.6625000000000003E-002     8.9946474373696268E-011
   2.7000000000000003E-002     2.1359044287019573E-010
   2.7375000000000003E-002     4.9767284215220136E-010
   2.7750000000000004E-002     1.1377353402161847E-009
   2.8125000000000004E-002     2.5518645418816434E-009
   2.8500000000000004E-002     5.6150788383977700E-009
   2.8875000000000005E-002     1.2120324486949278E-008
   2.9250000000000005E-002     2.5662227503186816E-008
   2.9625000000000005E-002     5.3292607623993241E-008
   3.0000000000000006E-002     1.0854007722628475E-007
   3.0375000000000006E-002     2.1678389828642167E-007
   3.0750000000000000E-002     4.2455247665284737E-007
   3.1125000000000000E-002     8.1518436961602143E-007
   3.1500000000000000E-002     1.5344438727242979E-006
   3.1875000000000001E-002     2.8310756709246457E-006
   3.2250000000000001E-002     5.1192054969962807E-006
   3.2625000000000001E-002     9.0704695586578453E-006
   3.3000000000000002E-002     1.5745518733452954E-005
   3.3375000000000002E-002     2.6773089631561731E-005
   3.3750000000000002E-002     4.4581831680224390E-005
   3.4125000000000003E-002     7.2682567491068155E-005
   3.4500000000000003E-002     1.1598169292805155E-004
   3.4875000000000003E-002     1.8109505110755226E-004
   3.5250000000000004E-002     2.7657758756374166E-004
   3.5625000000000004E-002     4.1300125092836974E-004
   3.6000000000000004E-002     6.0269185358346328E-004
   3.6375000000000005E-002     8.5903925491778027E-004
   3.6750000000000005E-002     1.1951396586402929E-003
   3.7125000000000005E-002     1.6217638863955455E-003
   3.7500000000000006E-002     2.1443977011359264E-003
   3.7875000000000006E-002     2.7598925670549446E-003
   3.8250000000000006E-002     3.4524975225509597E-003
   3.8625000000000007E-002     4.1905706438624818E-003
   3.9000000000000000E-002     4.9240336388075567E-003
   3.9375000000000000E-002     5.5842411476821896E-003
   3.9750000000000001E-002     6.0870875469171137E-003
   4.0125000000000001E-002     6.3388261012040092E-003
   4.0500000000000001E-002     6.2492435212086750E-003
   4.0875000000000002E-002     5.7424644014216764E-003
   4.1250000000000002E-002     4.7771395723540389E-003
   4.1625000000000002E-002     3.3590692205956313E-003
   4.2000000000000003E-002     1.5548090146672786E-003
   4.2375000000000003E-002    -5.0620823666352533E-004
   4.2750000000000003E-002    -2.6357556832117823E-003
   4.3125000000000004E-002    -4.6086949133161276E-003
   4.3500000000000004E-002    -6.1928634250437709E-003
   4.3875000000000004E-002    -7.1866066432370590E-003
   4.4250000000000005E-002    -7.4697787092094792E-003
   4.4625000000000005E-002    -7.0313589121021869E-003
   4.5000000000000005E-002    -6.0079960447061709E-003
   4.5375000000000006E-002    -4.6790783271997705E-003
   4.5750000000000006E-002    -3.4549197657857689E-003
   4.6125000000000006E-002    -2.8259336875333663E-003
   4.6500000000000007E-002    -3.2949496213516699E-003
   4.6875000000000007E-002    -5.3012550418122251E-003
   4.7250000000000000E-002    -9.1273029658695271E-003
   4.7625000000000001E-002    -1.4841114844006797E-002
   4.8000000000000001E-002    -2.2248614705061120E-002
   4.8375000000000001E-002    -3.0887226756547315E-002
   4.8750000000000002E-002    -4.0055036740972660E-002
   4.9125000000000002E-002    -4.8895397791289374E-002
   4.9500000000000002E-002    -5.6473025436569291E-002
   4.9875000000000003E-002    -6.1907904617975129E-002
   5.0250000000000003E-002    -6.4455955891209005E-002
   5.0625000000000003E-002    -6.3622509204633637E-002
   5.1000000000000004E-002    -5.9199505818435583E-002
   5.1375000000000004E-002    -5.1288021777294635E-002
   5.1750000000000004E-002    -4.0268486314718022E-002
   5.2125000000000005E-002    -2.6745193918061627E-002
   5.2500000000000005E-002    -1.1467715486443708E-002
   5.2875000000000005E-002     4.7747291071829276E-003
   5.3250000000000006E-002     2.1219457629388150E-002
   5.3625000000000006E-002     3.7223316024282305E-002
   5.4000000000000006E-002     5.2289709065647338E-002
   5.4375000000000007E-002     6.6085002223482014E-002
   5.4750000000000007E-002     7.8428628662997379E-002
   5.5125000000000007E-002     8.9265249621121256E-002
   5.5500000000000008E-002     9.8597361880551126E-002
   5.5875000000000008E-002    0.10643651456565850     
   5.6250000000000008E-002    0.11278408108022075     
   5.6625000000000009E-002    0.11753450817723188     
   5.7000000000000009E-002    0.12054548697877054     
   5.7375000000000009E-002    0.12156566038494487     
   5.7750000000000010E-002    0.12029974939870147     
   5.8125000000000010E-002    0.11645774484448213     
   5.8500000000000010E-002    0.10974728776303788     
   5.8875000000000011E-002     9.9989803184708403E-002
   5.9250000000000011E-002     8.7094329591471453E-002
   5.9624999999999997E-002     7.1137722656947844E-002
   5.9999999999999998E-002     5.2329016482525192E-002
   6.0374999999999998E-002     3.1066958663527933E-002
   6.0749999999999998E-002     7.8739762984264550E-003
   6.1124999999999999E-002    -1.6585547876882531E-002
   6.1499999999999999E-002    -4.1549716771221434E-002
   6.1874999999999999E-002    -6.6183069341077649E-002
   6.2250000000000000E-002    -8.9612109962188935E-002
   6.2625000000000000E-002   -0.11096249961381144     
   6.3000000000000000E-002   -0.12936137074320664     
   6.3375000000000001E-002   -0.14405069579837981     
   6.3750000000000001E-002   -0.15432493328555275     
   6.4125000000000001E-002   -0.15966076078787239     
   6.4500000000000002E-002   -0.15970148527315864     
   6.4875000000000002E-002   -0.15430824414754696     
   6.5250000000000002E-002   -0.14358123044691951     
   6.5625000000000003E-002   -0.12784565083113719     
   6.6000000000000003E-002   -0.10768732593339614     
   6.6375000000000003E-002    -8.3875530557792288E-002
   6.6750000000000004E-002    -5.7385742828007125E-002
   6.7125000000000004E-002    -2.9309458771906716E-002
   6.7500000000000004E-002    -8.4327360266336915E-004
   6.7875000000000005E-002     2.6778919408216639E-002
   6.8250000000000005E-002     5.2306133639630659E-002
   6.8625000000000005E-002     7.4532790116313752E-002
   6.9000000000000006E-002     9.2342224818952268E-002
   6.9375000000000006E-002    0.10472132964356051     
   6.9750000000000006E-002    0.11085861130244679     
   7.0125000000000007E-002    0.11015952787165117     
   7.0500000000000007E-002    0.10234750639247148     
   7.0875000000000007E-002     8.7463732788526372E-002
   7.1250000000000008E-002     6.6005840294295570E-002
   7.1625000000000008E-002     3.8863830368804697E-002
   7.2000000000000008E-002     7.3778545525153838E-003
   7.2375000000000009E-002    -2.6691627802960666E-002
   7.2750000000000009E-002    -6.1288893247295917E-002
   7.3125000000000009E-002    -9.4138867586113228E-002
   7.3500000000000010E-002   -0.12290397303840672     
   7.3875000000000010E-002   -0.14539539446760052     
   7.4250000000000010E-002   -0.15973329855671548     
   7.4625000000000011E-002   -0.16454107984582134     
   7.5000000000000011E-002   -0.15912005261419271     
   7.5375000000000011E-002   -0.14351171009633035     
   7.5750000000000012E-002   -0.11858012400975415     
   7.6124999999999998E-002    -8.5932247383885496E-002
   7.6499999999999999E-002    -4.7779474086464102E-002
   7.6874999999999999E-002    -6.7974562204940608E-003
   7.7249999999999999E-002     3.4234940601583573E-002
   7.7625000000000000E-002     7.2627252123437902E-002
   7.8000000000000000E-002    0.10607992074867489     
   7.8375000000000000E-002    0.13291180763517119     
   7.8750000000000001E-002    0.15217015695142688     
   7.9125000000000001E-002    0.16364695556548892     
   7.9500000000000001E-002    0.16785451009281704     
   7.9875000000000002E-002    0.16578134561629287     
   8.0250000000000002E-002    0.15872691370336067     
   8.0625000000000002E-002    0.14803870080170700     
   8.1000000000000003E-002    0.13484963125912319     
   8.1375000000000003E-002    0.11996628107300467     
   8.1750000000000003E-002    0.10379011945499261     
   8.2125000000000004E-002     8.6317242424478025E-002
   8.2500000000000004E-002     6.7284507057457699E-002
   8.2875000000000004E-002     4.6375523835283872E-002
   8.3250000000000005E-002     2.3384200228063534E-002
   8.3625000000000005E-002    -1.5502741380138685E-003
   8.4000000000000005E-002    -2.7773632266484022E-002
   8.4375000000000006E-002    -5.4132213645389449E-002
   8.4750000000000006E-002    -7.8931591821821634E-002
   8.5125000000000006E-002   -0.10013720456919328     
   8.5500000000000007E-002   -0.11561515839408854     
   8.5875000000000007E-002   -0.12336356493092637     
   8.6250000000000007E-002   -0.12194582799847797     
   8.6625000000000008E-002   -0.11063012924976068     
   8.7000000000000008E-002    -8.9736310377957373E-002
   8.7375000000000008E-002    -6.0654586053519477E-002
   8.7750000000000009E-002    -2.5833097875120004E-002
   8.8125000000000009E-002     1.1410809583005041E-002
   8.8500000000000009E-002     4.7215094319834505E-002
   8.8875000000000010E-002     7.7631922941525211E-002
   8.9250000000000010E-002     9.9086490110269931E-002
   8.9625000000000010E-002    0.10888185859969601     
   9.0000000000000011E-002    0.10559615153502211     
   9.0375000000000011E-002     8.9291034070125619E-002
   9.0750000000000011E-002     6.1680021832848375E-002
   9.1125000000000012E-002     2.5833435762719903E-002
   9.1500000000000012E-002    -1.4073428758007864E-002
   9.1875000000000012E-002    -5.3256869832006781E-002
   9.2250000000000013E-002    -8.7045709339616639E-002
   9.2624999999999999E-002   -0.11131512962496304     
   9.2999999999999999E-002   -0.12314071194989173     
   9.3375000000000000E-002   -0.12108928813546660     
   9.3750000000000000E-002   -0.10544721882782282     
   9.4125000000000000E-002    -7.8062306876753418E-002
   9.4500000000000001E-002    -4.2277893639383501E-002
   9.4875000000000001E-002    -2.3068839143034481E-003
   9.5250000000000001E-002     3.7142274343023196E-002
   9.5625000000000002E-002     7.1453558400419004E-002
   9.6000000000000002E-002     9.6707856411614834E-002
   9.6375000000000002E-002    0.10997907804888207     
   9.6750000000000003E-002    0.10978738691984491     
   9.7125000000000003E-002     9.6120402673318672E-002
   9.7500000000000003E-002     7.0486028943232970E-002
   9.7875000000000004E-002     3.5624424416507372E-002
   9.8250000000000004E-002    -4.7202158229833202E-003
   9.8625000000000004E-002    -4.6323648477938406E-002
   9.9000000000000005E-002    -8.4903425714502490E-002
   9.9375000000000005E-002   -0.11652250108018247     
   9.9750000000000005E-002   -0.13812373911678844     
  0.10012500000000001        -0.14757895822630829     
  0.10050000000000001        -0.14402930662456104     
  0.10087500000000001        -0.12774076567045789     
  0.10125000000000001        -0.10006742705937821     
  0.10162500000000001         -6.3235592649343531E-002
  0.10200000000000001         -2.0079821001553033E-002
  0.10237500000000001          2.6113399771737544E-002
  0.10275000000000001          7.1914114007340268E-002
  0.10312500000000001         0.11383355878252965     
  0.10350000000000001         0.14860691866240572     
  0.10387500000000001         0.17320305032151850     
  0.10425000000000001         0.18519161294851205     
  0.10462500000000001         0.18275672100916474     
  0.10500000000000001         0.16508239812183412     
  0.10537500000000001         0.13246064683085557     
  0.10575000000000001          8.6410348859920383E-002
  0.10612500000000001          2.9814159117544703E-002
  0.10650000000000001         -3.3352244248916946E-002
  0.10687500000000001         -9.8191182356569928E-002
  0.10725000000000001        -0.15937621028847682     
  0.10762500000000001        -0.21169677573568801     
  0.10800000000000001        -0.25058645676084890     
  0.10837500000000001        -0.27264095314189163     
  0.10875000000000001        -0.27598721465084353     
  0.10912500000000000        -0.26042950159547829     
  0.10950000000000000        -0.22741445949297479     
  0.10987500000000000        -0.17980915000400444     
  0.11025000000000000        -0.12142697956674464     
  0.11062500000000001         -5.6660696865917348E-002
  0.11100000000000000          1.0101530762012256E-002
  0.11137500000000002          7.4776184052625039E-002
  0.11175000000000000         0.13395960890351732     
  0.11212500000000002         0.18505943541894121     
  0.11250000000000000         0.22633952249312017     
  0.11287500000000002         0.25693839681349395     
  0.11325000000000000         0.27668771145564008     
  0.11362500000000002         0.28612276398449499     
  0.11400000000000000         0.28629274772933577     
  0.11437500000000002         0.27870300520831037     
  0.11475000000000000         0.26518755908955960     
  0.11512500000000002         0.24775811427929195     
  0.11550000000000001         0.22849543918655346     
  0.11587500000000002         0.20918135888841505     
  0.11625000000000001         0.19118386972310297     
  0.11662500000000002         0.17505001994041969     
  0.11700000000000001         0.16040502790814681     
  0.11737499999999999         0.14572636687619944     
  0.11775000000000001         0.12838905173236803     
  0.11812499999999999         0.10491485268199963     
  0.11850000000000001          7.1347364926227286E-002
  0.11887499999999999          2.3840806338593312E-002
  0.11925000000000001         -4.0641664541582911E-002
  0.11962500000000000        -0.12361748414828777     
  0.12000000000000001        -0.22439598801166927     
  0.12037500000000000        -0.33970282767125815     
  0.12075000000000001        -0.46350791389273382     
  0.12112500000000000        -0.58729099081312519     
  0.12150000000000001        -0.70066589135096180     
  0.12187500000000000        -0.79242980314913325     
  0.12225000000000001        -0.85161426326873269     
  0.12262500000000000        -0.86917933509548106     
  0.12300000000000001        -0.83891280122540479     
  0.12337500000000000        -0.75863358100065881     
  0.12375000000000001        -0.63062849464972004     
  0.12412500000000000        -0.46170023924959835     
  0.12450000000000001        -0.26259852268330164     
  0.12487500000000000         -4.6733782448772132E-002
  0.12525000000000003         0.17098869951748641     
  0.12562499999999999         0.37618461375585954     
  0.12600000000000000         0.55629163424208006     
  0.12637500000000002         0.70188295357135289     
  0.12675000000000003         0.80750454349517398     
  0.12712499999999999         0.87173538201791700     
  0.12750000000000000         0.89690221677749804     
  0.12787500000000002         0.88784173792103971     
  0.12825000000000003         0.85100198411813466     
  0.12862499999999999         0.79312904912644200     
  0.12900000000000000         0.71993976125446579     
  0.12937500000000002         0.63571935150860881     
  0.12975000000000003         0.54295596992496797     
  0.13012499999999999         0.44244132617717824     
  0.13050000000000000         0.33430591600317605     
  0.13087500000000002         0.21838722900282015     
  0.13125000000000003          9.5313516558839240E-002
  0.13162499999999999         -3.2765650031543192E-002
  0.13200000000000001        -0.16207626760753338     
  0.13237500000000002        -0.28707264934256704     
  0.13275000000000003        -0.40101166606011168     
  0.13312499999999999        -0.49659449175575576     
  0.13350000000000001        -0.56689786681327892     
  0.13387500000000002        -0.60626982258605544     
  0.13424999999999998        -0.61118243607108624     
  0.13462499999999999        -0.58091565302875736     
  0.13500000000000001        -0.51778435665602629     
  0.13537500000000002        -0.42719053754822056     
  0.13574999999999998        -0.31730217661643678     
  0.13612500000000000        -0.19855340183661774     
  0.13650000000000001         -8.2448855823458067E-002
  0.13687500000000002          1.9603932348652542E-002
  0.13724999999999998          9.7233199442573914E-002
  0.13762500000000000         0.14297171687947863     
  0.13800000000000001         0.15275622619386331     
  0.13837500000000003         0.12700386709958800     
  0.13874999999999998          7.0594545625731198E-002
  0.13912500000000000         -7.5366423038198960E-003
  0.13950000000000001         -9.5575307494204009E-002
  0.13987500000000003        -0.18027335758550800     
  0.14024999999999999        -0.24887194194617335     
  0.14062500000000000        -0.29100145412544620     
  0.14100000000000001        -0.30013756721269225     
  0.14137500000000003        -0.27458155750667146     
  0.14174999999999999        -0.21760412264775120     
  0.14212500000000000        -0.13692522453607303     
  0.14250000000000002         -4.3146337843745775E-002
  0.14287500000000003          5.1637049326396067E-002
  0.14324999999999999         0.13621469060387081     
  0.14362500000000000         0.20168126256136620     
  0.14400000000000002         0.24273893816581715     
  0.14437500000000003         0.25848092912126752     
  0.14474999999999999         0.25164656952843600     
  0.14512500000000000         0.22832024809457341     
  0.14550000000000002         0.19616274638652609     
  0.14587500000000003         0.16295990873784927     
  0.14624999999999999         0.13522410788940498     
  0.14662500000000001         0.11695872823859954     
  0.14700000000000002         0.10925496014436242     
  0.14737500000000003         0.11032385499144093     
  0.14774999999999999         0.11600050821411578     
  0.14812500000000001         0.12092492755046536     
  0.14850000000000002         0.11975468292062796     
  0.14887500000000004         0.10819394207891664     
  0.14924999999999999          8.4132979727464363E-002
  0.14962500000000001          4.7979898339128191E-002
  0.15000000000000002          2.7385591896968986E-003
  0.15037499999999998         -4.6320540700602431E-002
  0.15075000000000000         -9.2757043809988615E-002
  0.15112500000000001        -0.12975534043814085     
  0.15150000000000002        -0.15129556755961654     
  0.15187499999999998        -0.15342095842999459     
  0.15225000000000000        -0.13442966011728563     
  0.15262500000000001         -9.5676212453937648E-002
  0.15300000000000002         -4.1441476301161351E-002
  0.15337499999999998          2.1977643965775284E-002
  0.15375000000000000          8.6486156384121826E-002
  0.15412500000000001         0.14366159513967869     
  0.15450000000000003         0.18586637806713469     
  0.15487499999999998         0.20697863108133152     
  0.15525000000000000         0.20357083823165434     
  0.15562500000000001         0.17539778759403823     
  0.15600000000000003         0.12508316672828634     
  0.15637499999999999          5.8023449273637562E-002
  0.15675000000000000         -1.8242968839710771E-002
  0.15712500000000001         -9.5356501842645214E-002
  0.15750000000000003        -0.16495283883339040     
  0.15787499999999999        -0.21994533157558660     
  0.15825000000000000        -0.25531836822260168     
  0.15862500000000002        -0.26834374872843370     
  0.15900000000000003        -0.25904082821086138     
  0.15937499999999999        -0.22978036699001603     
  0.15975000000000000        -0.18474441891577431     
  0.16012500000000002        -0.12912400830348858     
  0.16050000000000003         -6.8473029712686095E-002
  0.16087499999999999         -8.1514832395511716E-003
  0.16125000000000000          4.7396449750978217E-002
  0.16162500000000002          9.4620711285747616E-002
  0.16200000000000003         0.13115763217259935     
  0.16237499999999999         0.15572187718772890     
  0.16275000000000001         0.16771520388996120     
  0.16312500000000002         0.16737576349706096     
  0.16350000000000003         0.15558543224242261     
  0.16387499999999999         0.13372192206509848     
  0.16425000000000001         0.10361345470769479     
  0.16462500000000002          6.7575184260649124E-002
  0.16500000000000004          2.8484431386457287E-002
  0.16537499999999999         -1.0755040187889642E-002
  0.16575000000000001         -4.6987549770209247E-002
  0.16612500000000002         -7.7443708523189159E-002
  0.16650000000000004         -9.9961039056083889E-002
  0.16687500000000000        -0.11297228791128600     
  0.16725000000000001        -0.11609885032050205     
  0.16762500000000002        -0.11006881378029210     
  0.16799999999999998         -9.6192658503350348E-002
  0.16837500000000000         -7.6801746202903143E-002
  0.16875000000000001         -5.4315363188680799E-002
  0.16912500000000003         -3.1204304809240968E-002
  0.16949999999999998         -9.7043125245898920E-003
  0.16987500000000000          8.6179636223777667E-003
  0.17025000000000001          2.2754519680420499E-002
  0.17062500000000003          3.2322585877539334E-002
  0.17099999999999999          3.7403537908471174E-002
  0.17137500000000000          3.8354587111834038E-002
  0.17175000000000001          3.5928474167003843E-002
  0.17212500000000003          3.0816518445504704E-002
  0.17249999999999999          2.3719920272534667E-002
  0.17287500000000000          1.5436823603265815E-002
  0.17325000000000002          6.7217341718826262E-003
  0.17362500000000003         -1.6611010604402343E-003
  0.17399999999999999         -9.1312089059780166E-003
  0.17437500000000000         -1.5289572139543253E-002
  0.17475000000000002         -2.0009885253750914E-002
  0.17512500000000003         -2.3440431020860575E-002
  0.17549999999999999         -2.5993507988248177E-002
  0.17587500000000000         -2.7832919382833610E-002
  0.17625000000000002         -2.9019236344260624E-002
  0.17662500000000003         -2.8597093646920868E-002
  0.17699999999999999         -2.4771162083913723E-002
  0.17737500000000000         -1.5260992466195750E-002
  0.17775000000000002          2.8040096248805324E-003
  0.17812500000000003          3.1285942492258023E-002
  0.17849999999999999          7.0549890013829941E-002
  0.17887500000000001         0.11783571491917237     
  0.17925000000000002         0.16703634354431898     
  0.17962500000000003         0.20881481642251121     
  0.17999999999999999         0.23161712142123148     
  0.18037500000000001         0.22391180073971473     
  0.18075000000000002         0.17710963823311587     
  0.18112500000000004          8.8187848423953774E-002
  0.18149999999999999         -3.7602894153049959E-002
  0.18187500000000001        -0.18597545654275427     
  0.18225000000000002        -0.33451714534072408     
  0.18262500000000004        -0.45533325242455902     
  0.18300000000000000        -0.51978743886026102     
  0.18337500000000001        -0.50409788974228187     
  0.18375000000000002        -0.39471009521298184     
  0.18412499999999998        -0.19274790967959898     
  0.18450000000000000          8.4163569901177127E-002
  0.18487500000000001         0.40284218075249356     
  0.18525000000000003         0.71840042571035978     
  0.18562499999999998         0.98080983508834585     
  0.18600000000000000          1.1427390385164644     
  0.18637500000000001          1.1673489443598770     
  0.18675000000000003          1.0353577928898581     
  0.18712499999999999         0.74857543554099237     
  0.18750000000000000         0.33116297127972238     
  0.18787500000000001        -0.17304763685264746     
  0.18825000000000003        -0.70629955246778664     
  0.18862499999999999         -1.2044030136147379     
  0.18900000000000000         -1.6054246916459078     