  -1.4999999999999999E-002     0.0000000000000000     
  -1.4624999999999999E-002     0.0000000000000000     
  -1.4249999999999999E-002     0.0000000000000000     
  -1.3874999999999998E-002     0.0000000000000000     
  -1.3500000000000000E-002     0.0000000000000000     
  -1.3125000000000000E-002     0.0000000000000000     
  -1.2749999999999999E-002     0.0000000000000000     
  -1.2374999999999999E-002     0.0000000000000000     
  -1.2000000000000000E-002     0.0000000000000000     
  -1.1625000000000000E-002     0.0000000000000000     
  -1.1250000000000000E-002     0.0000000000000000     
  -1.0874999999999999E-002     0.0000000000000000     
  -1.0499999999999999E-002     0.0000000000000000     
  -1.0124999999999999E-002     0.0000000000000000     
  -9.7499999999999983E-003     0.0000000000000000     
  -9.3749999999999979E-003     0.0000000000000000     
  -8.9999999999999993E-003     0.0000000000000000     
  -8.6249999999999990E-003     0.0000000000000000     
  -8.2500000000000004E-003     0.0000000000000000     
  -7.8750000000000001E-003     0.0000000000000000     
  -7.4999999999999989E-003     0.0000000000000000     
  -7.1249999999999994E-003     0.0000000000000000     
  -6.7499999999999991E-003     0.0000000000000000     
  -6.3749999999999987E-003     0.0000000000000000     
  -5.9999999999999984E-003     0.0000000000000000     
  -5.6249999999999998E-003     0.0000000000000000     
  -5.2499999999999995E-003     0.0000000000000000     
  -4.8749999999999991E-003     0.0000000000000000     
  -4.4999999999999988E-003     0.0000000000000000     
  -4.1249999999999985E-003     0.0000000000000000     
  -3.7499999999999981E-003     0.0000000000000000     
  -3.3749999999999995E-003     0.0000000000000000     
  -2.9999999999999992E-003     0.0000000000000000     
  -2.6249999999999989E-003     0.0000000000000000     
  -2.2499999999999985E-003     0.0000000000000000     
  -1.8749999999999982E-003     0.0000000000000000     
  -1.4999999999999996E-003     0.0000000000000000     
  -1.1249999999999993E-003     0.0000000000000000     
  -7.4999999999999893E-004     0.0000000000000000     
  -3.7499999999999860E-004     0.0000000000000000     
   1.7347234759768071E-018     0.0000000000000000     
   3.7500000000000207E-004     0.0000000000000000     
   7.5000000000000067E-004     0.0000000000000000     
   1.1250000000000010E-003     0.0000000000000000     
   1.5000000000000013E-003     0.0000000000000000     
   1.8750000000000017E-003     0.0000000000000000     
   2.2500000000000020E-003     0.0000000000000000     
   2.6250000000000023E-003     0.0000000000000000     
   3.0000000000000027E-003     0.0000000000000000     
   3.3750000000000030E-003     0.0000000000000000     
   3.7499999999999999E-003     0.0000000000000000     
   4.1250000000000002E-003     0.0000000000000000     
   4.5000000000000005E-003     0.0000000000000000     
   4.8750000000000009E-003     0.0000000000000000     
   5.2500000000000012E-003     0.0000000000000000     
   5.6250000000000015E-003     0.0000000000000000     
   6.0000000000000019E-003     0.0000000000000000     
   6.3750000000000022E-003     0.0000000000000000     
   6.7500000000000025E-003     0.0000000000000000     
   7.1250000000000029E-003     0.0000000000000000     
   7.5000000000000032E-003     0.0000000000000000     
   7.8750000000000001E-003     0.0000000000000000     
   8.2500000000000004E-003     0.0000000000000000     
   8.6250000000000007E-003     0.0000000000000000     
   9.0000000000000011E-003     0.0000000000000000     
   9.3750000000000014E-003     0.0000000000000000     
   9.7500000000000017E-003     0.0000000000000000     
   1.0125000000000002E-002     0.0000000000000000     
   1.0500000000000002E-002     0.0000000000000000     
   1.0875000000000003E-002     0.0000000000000000     
   1.1250000000000003E-002     0.0000000000000000     
   1.1625000000000003E-002     0.0000000000000000     
   1.2000000000000000E-002     0.0000000000000000     
   1.2375000000000001E-002     0.0000000000000000     
   1.2750000000000001E-002     0.0000000000000000     
   1.3125000000000001E-002     0.0000000000000000     
   1.3500000000000002E-002     0.0000000000000000     
   1.3875000000000002E-002     0.0000000000000000     
   1.4250000000000002E-002     0.0000000000000000     
   1.4625000000000003E-002     0.0000000000000000     
   1.5000000000000003E-002     0.0000000000000000     
   1.5375000000000003E-002     0.0000000000000000     
   1.5750000000000004E-002     0.0000000000000000     
   1.6125000000000000E-002     0.0000000000000000     
   1.6500000000000001E-002     0.0000000000000000     
   1.6875000000000001E-002     0.0000000000000000     
   1.7250000000000001E-002     0.0000000000000000     
   1.7625000000000002E-002     0.0000000000000000     
   1.8000000000000002E-002     0.0000000000000000     
   1.8375000000000002E-002     0.0000000000000000     
   1.8750000000000003E-002     0.0000000000000000     
   1.9125000000000003E-002     0.0000000000000000     
   1.9500000000000003E-002     0.0000000000000000     
   1.9875000000000004E-002    -6.6041187039256081E-053
   2.0250000000000004E-002    -6.0298261396830442E-051
   2.0625000000000004E-002    -1.6596812110857602E-037
   2.1000000000000005E-002    -1.4973524826084627E-035
   2.1375000000000005E-002    -4.1111072110316871E-034
   2.1750000000000005E-002    -4.1952490719805405E-033
   2.2125000000000006E-002    -2.0970143978780344E-032
   2.2499999999999999E-002     1.9776409049948046E-031
   2.2875000000000000E-002     1.0458013174907402E-030
   2.3250000000000000E-002    -7.9833588608212322E-030
   2.3625000000000000E-002    -6.3826390566656099E-030
   2.4000000000000000E-002     2.2636999895199775E-028
   2.4375000000000001E-002    -1.0968413158663520E-027
   2.4750000000000001E-002     2.7329867222343398E-027
   2.5125000000000001E-002    -2.9260804491767916E-027
   2.5500000000000002E-002    -8.5330485557303522E-027
   2.5875000000000002E-002     6.5748314373147879E-026
   2.6250000000000002E-002     1.5506362750101614E-024
   2.6625000000000003E-002     4.9190457853679429E-024
   2.7000000000000003E-002     1.9745010817766464E-023
   2.7375000000000003E-002     7.4196011463191046E-023
   2.7750000000000004E-002     2.7769597240436611E-022
   2.8125000000000004E-002     1.0184641149083443E-021
   2.8500000000000004E-002     3.6675292269523710E-021
   2.8875000000000005E-002     1.2969283312631239E-020
   2.9250000000000005E-002     4.5028907546035125E-020
   2.9625000000000005E-002     1.5350171171509177E-019
   3.0000000000000006E-002     5.1377320005555303E-019
   3.0375000000000006E-002     1.6883494887861441E-018
   3.0750000000000000E-002     5.4472531194383991E-018
   3.1125000000000000E-002     1.7254765310896870E-017
   3.1500000000000000E-002     5.3659525824425348E-017
   3.1875000000000001E-002     1.6382778051964701E-016
   3.2250000000000001E-002     4.9104192538763149E-016
   3.2625000000000001E-002     1.4448831153503585E-015
   3.3000000000000002E-002     4.1736989875053892E-015
   3.3375000000000002E-002     1.1834986827044755E-014
   3.3750000000000002E-002     3.2943547539509289E-014
   3.4125000000000003E-002     9.0014035807553702E-014
   3.4500000000000003E-002     2.4142406214938510E-013
   3.4875000000000003E-002     6.3557097934337337E-013
   3.5250000000000004E-002     1.6422948982250698E-012
   3.5625000000000004E-002     4.1650733252446343E-012
   3.6000000000000004E-002     1.0367388142865375E-011
   3.6375000000000005E-002     2.5326137397835806E-011
   3.6750000000000005E-002     6.0716689712856348E-011
   3.7125000000000005E-002     1.4284564258046299E-010
   3.7500000000000006E-002     3.2977831055698640E-010
   3.7875000000000006E-002     7.4707133683457869E-010
   3.8250000000000006E-002     1.6605464338741732E-009
   3.8625000000000007E-002     3.6214326482126575E-009
   3.9000000000000000E-002     7.7482884181234580E-009
   3.9375000000000000E-002     1.6263571371524332E-008
   3.9750000000000001E-002     3.3486462241526556E-008
   4.0125000000000001E-002     6.7630517870674987E-008
   4.0500000000000001E-002     1.3396439972883208E-007
   4.0875000000000002E-002     2.6024425549682229E-007
   4.1250000000000002E-002     4.9576356776566226E-007
   4.1625000000000002E-002     9.2601867651656018E-007
   4.2000000000000003E-002     1.6957879550909563E-006
   4.2375000000000003E-002     3.0442284626916224E-006
   4.2750000000000003E-002     5.3563860010105358E-006
   4.3125000000000004E-002     9.2363268107683712E-006
   4.3500000000000004E-002     1.5605535758387592E-005
   4.3875000000000004E-002     2.5830637807947165E-005
   4.4250000000000005E-002     4.1878274366875263E-005
   4.4625000000000005E-002     6.6484814868405360E-005
   4.5000000000000005E-002     1.0333459293839369E-004
   4.5375000000000006E-002     1.5719105594004445E-004
   4.5750000000000006E-002     2.3394741445901407E-004
   4.6125000000000006E-002     3.4055700099323713E-004
   4.6500000000000007E-002     4.8464944604721476E-004
   4.6875000000000007E-002     6.7398867402466013E-004
   4.7250000000000000E-002     9.1540903114143563E-004
   4.7625000000000001E-002     1.2134964883438876E-003
   4.8000000000000001E-002     1.5689774152668383E-003
   4.8375000000000001E-002     1.9767428945957192E-003
   4.8750000000000002E-002     2.4243912373798945E-003
   4.9125000000000002E-002     2.8907635409892536E-003
   4.9500000000000002E-002     3.3461225532061697E-003
   4.9875000000000003E-002     3.7526487756471740E-003
   5.0250000000000003E-002     4.0681666462887723E-003
   5.0625000000000003E-002     4.2498215881649256E-003
   5.1000000000000004E-002     4.2613967784138158E-003
   5.1375000000000004E-002     4.0790583342804054E-003
   5.1750000000000004E-002     3.6986622036079882E-003
   5.2125000000000005E-002     3.1414124569009265E-003
   5.2500000000000005E-002     2.4544178251726858E-003
   5.2875000000000005E-002     1.7078757167094060E-003
   5.3250000000000006E-002     9.8935316907103766E-004
   5.3625000000000006E-002     3.8770412100089908E-004
   5.4000000000000006E-002    -2.0983228053306889E-005
   5.4375000000000007E-002    -1.9149578652443317E-004
   5.4750000000000007E-002    -1.2676818831748273E-004
   5.5125000000000007E-002     1.1499825414646255E-004
   5.5500000000000008E-002     4.1441007893521919E-004
   5.5875000000000008E-002     6.0312454546358838E-004
   5.6250000000000008E-002     4.8037278988168172E-004
   5.6625000000000009E-002    -1.5851733950292987E-004
   5.7000000000000009E-002    -1.4883464585946724E-003
   5.7375000000000009E-002    -3.6222995819740972E-003
   5.7750000000000010E-002    -6.5844194284055491E-003
   5.8125000000000010E-002    -1.0293846738025237E-002
   5.8500000000000010E-002    -1.4561033973572012E-002
   5.8875000000000011E-002    -1.9101882957164803E-002
   5.9250000000000011E-002    -2.3565836848004871E-002
   5.9624999999999997E-002    -2.7575171033893928E-002
   5.9999999999999998E-002    -3.0762214925545067E-002
   6.0374999999999998E-002    -3.2817808613724193E-002
   6.0749999999999998E-002    -3.3516748295063736E-002
   6.1124999999999999E-002    -3.2746941115637251E-002
   6.1499999999999999E-002    -3.0505638286928816E-002
   6.1874999999999999E-002    -2.6899512793102230E-002
   6.2250000000000000E-002    -2.2119315051053145E-002
   6.2625000000000000E-002    -1.6415312531902697E-002
   6.3000000000000000E-002    -1.0061919363378868E-002
   6.3375000000000001E-002    -3.3345457703378243E-003
   6.3750000000000001E-002     3.5145530511620647E-003
   6.4125000000000001E-002     1.0271920087405042E-002
   6.4500000000000002E-002     1.6758522271648743E-002
   6.4875000000000002E-002     2.2839375427235548E-002
   6.5250000000000002E-002     2.8392729922381101E-002
   6.5625000000000003E-002     3.3315480425526178E-002
   6.6000000000000003E-002     3.7496637273440679E-002
   6.6375000000000003E-002     4.0814683308740642E-002
   6.6750000000000004E-002     4.3132132430231153E-002
   6.7125000000000004E-002     4.4298710025808832E-002
   6.7500000000000004E-002     4.4168499999757423E-002
   6.7875000000000005E-002     4.2616467402845928E-002
   6.8250000000000005E-002     3.9570190397903299E-002
   6.8625000000000005E-002     3.5017313818190052E-002
   6.9000000000000006E-002     2.9064584308033728E-002
   6.9375000000000006E-002     2.1907672628706361E-002
   6.9750000000000006E-002     1.3880674730292464E-002
   7.0125000000000007E-002     5.4086979599494902E-003
   7.0500000000000007E-002    -3.0013980089362621E-003
   7.0875000000000007E-002    -1.0796790687466714E-002
   7.1250000000000008E-002    -1.7459111404379737E-002
   7.1625000000000008E-002    -2.2521329975065014E-002
   7.2000000000000008E-002    -2.5666311647276480E-002
   7.2375000000000009E-002    -2.6724456817059223E-002
   7.2750000000000009E-002    -2.5731824150621609E-002
   7.3125000000000009E-002    -2.2916584920089918E-002
   7.3500000000000010E-002    -1.8659567827763006E-002
   7.3875000000000010E-002    -1.3483947792500357E-002
   7.4250000000000010E-002    -7.9557413170921014E-003
   7.4625000000000011E-002    -2.6408424956650078E-003
   7.5000000000000011E-002     1.9576805782309504E-003
   7.5375000000000011E-002     5.4709640801764332E-003
   7.5750000000000012E-002     7.6734629850365738E-003
   7.6124999999999998E-002     8.4993049084977363E-003
   7.6499999999999999E-002     8.0485762386044643E-003
   7.6874999999999999E-002     6.5443293892016759E-003
   7.7249999999999999E-002     4.3050966258638967E-003
   7.7625000000000000E-002     1.7082709031287988E-003
   7.8000000000000000E-002    -8.5681822181575291E-004
   7.8375000000000000E-002    -2.9927298956339337E-003
   7.8750000000000001E-002    -4.3690597317038362E-003
   7.9125000000000001E-002    -4.6955806018208366E-003
   7.9500000000000001E-002    -3.7669682486703273E-003
   7.9875000000000002E-002    -1.4893504961921030E-003
   8.0250000000000002E-002     2.1534649708749220E-003
   8.0625000000000002E-002     7.0107527296254905E-003
   8.1000000000000003E-002     1.2831266668190230E-002
   8.1375000000000003E-002     1.9223025647886971E-002
   8.1750000000000003E-002     2.5692763657075020E-002
   8.2125000000000004E-002     3.1659814961678946E-002
   8.2500000000000004E-002     3.6519676150120903E-002
   8.2875000000000004E-002     3.9689140773918094E-002
   8.3250000000000005E-002     4.0682769543172848E-002
   8.3625000000000005E-002     3.9162996978268867E-002
   8.4000000000000005E-002     3.4994384257410124E-002
   8.4375000000000006E-002     2.8280674001425768E-002
   8.4750000000000006E-002     1.9366915057839440E-002
   8.5125000000000006E-002     8.8338475147930005E-003
   8.5500000000000007E-002    -2.5808441040750447E-003
   8.5875000000000007E-002    -1.4018374038989725E-002
   8.6250000000000007E-002    -2.4607620219798843E-002
   8.6625000000000008E-002    -3.3569728300564622E-002
   8.7000000000000008E-002    -4.0272307932616783E-002
   8.7375000000000008E-002    -4.4386182478871647E-002
   8.7750000000000009E-002    -4.5832861488022951E-002
   8.8125000000000009E-002    -4.4900341225531659E-002
   8.8500000000000009E-002    -4.2148128722566389E-002
   8.8875000000000010E-002    -3.8380355848476225E-002
   8.9250000000000010E-002    -3.4556363995646627E-002
   8.9625000000000010E-002    -3.1618631693935639E-002
   9.0000000000000011E-002    -3.0436427104584635E-002
   9.0375000000000011E-002    -3.1605219551561814E-002
   9.0750000000000011E-002    -3.5430065813052122E-002
   9.1125000000000012E-002    -4.1796208180583085E-002
   9.1500000000000012E-002    -5.0222630106510131E-002
   9.1875000000000012E-002    -5.9860075623905662E-002
   9.2250000000000013E-002    -6.9622922766222020E-002
   9.2624999999999999E-002    -7.8304670771822904E-002
   9.2999999999999999E-002    -8.4688187244527091E-002
   9.3375000000000000E-002    -8.7764110947031501E-002
   9.3750000000000000E-002    -8.6736505135173295E-002
   9.4125000000000000E-002    -8.1231055572640057E-002
   9.4500000000000001E-002    -7.1188606058808862E-002
   9.4875000000000001E-002    -5.6952005579239212E-002
   9.5250000000000001E-002    -3.9151563989208493E-002
   9.5625000000000002E-002    -1.8603662451956764E-002
   9.6000000000000002E-002     3.7232392390957707E-003
   9.6375000000000002E-002     2.6895128317096693E-002
   9.6750000000000003E-002     4.9984536183378982E-002
   9.7125000000000003E-002     7.2180911013381255E-002
   9.7500000000000003E-002     9.2761101224840228E-002
   9.7875000000000004E-002    0.11109006968097496     
   9.8250000000000004E-002    0.12658597861969506     
   9.8625000000000004E-002    0.13871181166963714     
   9.9000000000000005E-002    0.14695770222934604     
   9.9375000000000005E-002    0.15084552844623833     
   9.9750000000000005E-002    0.15001978135493055     
  0.10012500000000001         0.14422310909408037     
  0.10050000000000001         0.13346314008599414     
  0.10087500000000001         0.11793390213094856     
  0.10125000000000001          9.8169363507989924E-002
  0.10162500000000001          7.4961759114873169E-002
  0.10200000000000001          4.9298779909375333E-002
  0.10237500000000001          2.2364750288961868E-002
  0.10275000000000001         -4.6390059947458125E-003
  0.10312500000000001         -3.0518633047915210E-002
  0.10350000000000001         -5.4226075012317049E-002
  0.10387500000000001         -7.4874384546780179E-002
  0.10425000000000001         -9.1803272490604382E-002
  0.10462500000000001        -0.10454076277476435     
  0.10500000000000001        -0.11280136187019857     
  0.10537500000000001        -0.11647489199060110     
  0.10575000000000001        -0.11553901439803116     
  0.10612500000000001        -0.11011725700974698     
  0.10650000000000001        -0.10040861325810688     
  0.10687500000000001         -8.6738590073963867E-002
  0.10725000000000001         -6.9554689988129692E-002
  0.10762500000000001         -4.9446522669634167E-002
  0.10800000000000001         -2.7159630289930126E-002
  0.10837500000000001         -3.5613301669140431E-003
  0.10875000000000001          2.0343745218499534E-002
  0.10912500000000000          4.3490486325479971E-002
  0.10950000000000000          6.4784139840387014E-002
  0.10987500000000000          8.3143044283343182E-002
  0.11025000000000000          9.7583285120001056E-002
  0.11062500000000001         0.10723905611386425     
  0.11100000000000000         0.11143533894935498     
  0.11137500000000002         0.10974311188001042     
  0.11175000000000000         0.10198010068829901     
  0.11212500000000002          8.8321937610391796E-002
  0.11250000000000000          6.9245481452752680E-002
  0.11287500000000002          4.5632238795102247E-002
  0.11325000000000000          1.8660885641308536E-002
  0.11362500000000002         -1.0184297203358577E-002
  0.11400000000000000         -3.9212004459983407E-002
  0.11437500000000002         -6.6653607307853718E-002
  0.11475000000000000         -9.0793272739374598E-002
  0.11512500000000002        -0.11009295008057532     
  0.11550000000000001        -0.12338022681862526     
  0.11587500000000002        -0.12986461212738970     
  0.11625000000000001        -0.12925772613007336     
  0.11662500000000002        -0.12173851140355868     
  0.11700000000000001        -0.10791969443150090     
  0.11737499999999999         -8.8759730243584106E-002
  0.11775000000000001         -6.5412227674968806E-002
  0.11812499999999999         -3.9192367900030792E-002
  0.11850000000000001         -1.1408899926300719E-002
  0.11887499999999999          1.6669375395259842E-002
  0.11925000000000001          4.3854103087263674E-002
  0.11962500000000000          6.9035722997016047E-002
  0.12000000000000001          9.1190277428366939E-002
  0.12037500000000000         0.10934425726616745     
  0.12075000000000001         0.12259377409290989     
  0.12112500000000000         0.13011080174583572     
  0.12150000000000001         0.13121102098074791     
  0.12187500000000000         0.12538971959657202     
  0.12225000000000001         0.11248825772643489     
  0.12262500000000000          9.2676712431522687E-002
  0.12300000000000001          6.6613510463360448E-002
  0.12337500000000000          3.5434802123447330E-002
  0.12375000000000001          7.1384881953205030E-004
  0.12412500000000000         -3.5533735708431408E-002
  0.12450000000000001         -7.1052322668043039E-002
  0.12487500000000000        -0.10347282742374142     
  0.12525000000000003        -0.13053439089420454     
  0.12562499999999999        -0.15021809594398244     
  0.12600000000000000        -0.16107672777242329     
  0.12637500000000002        -0.16223904391728114     
  0.12675000000000003        -0.15359292485826040     
  0.12712499999999999        -0.13584341967592647     
  0.12750000000000000        -0.11028569054913365     
  0.12787500000000002         -7.8967932291292592E-002
  0.12825000000000003         -4.4171403497515617E-002
  0.12862499999999999         -8.4518103236306489E-003
  0.12900000000000000          2.5766822701273364E-002
  0.12937500000000002          5.6363234015623577E-002
  0.12975000000000003          8.1672133783430911E-002
  0.13012499999999999         0.10063807590238283     
  0.13050000000000000         0.11281009075363069     
  0.13087500000000002         0.11831783849918429     
  0.13125000000000003         0.11772129717158569     
  0.13162499999999999         0.11191370612649071     
  0.13200000000000001         0.10189590813981995     
  0.13237500000000002          8.8697443495910244E-002
  0.13275000000000003          7.3188812676783871E-002
  0.13312499999999999          5.6113011278094801E-002
  0.13350000000000001          3.8050773718195693E-002
  0.13387500000000002          1.9433188924807214E-002
  0.13424999999999998          7.5384969026618298E-004
  0.13462499999999999         -1.7503989353054205E-002
  0.13500000000000001         -3.4639433449862221E-002
  0.13537500000000002         -4.9793641420426180E-002
  0.13574999999999998         -6.1949457692783538E-002
  0.13612500000000000         -6.9995565322220343E-002
  0.13650000000000001         -7.2892187338380668E-002
  0.13687500000000002         -6.9849747837649745E-002
  0.13724999999999998         -6.0518065428216111E-002
  0.13762500000000000         -4.5122666351742745E-002
  0.13800000000000001         -2.4660411874999462E-002
  0.13837500000000003         -7.9907844756627391E-004
  0.13874999999999998          2.4144430460821820E-002
  0.13912500000000000          4.7401614060181937E-002
  0.13950000000000001          6.6202175724450515E-002
  0.13987500000000003          7.7942872652198056E-002
  0.14024999999999999          8.0814776340999220E-002
  0.14062500000000000          7.3940865017989757E-002
  0.14100000000000001          5.7717849989655692E-002
  0.14137500000000003          3.3824200179657316E-002
  0.14174999999999999          5.0694406431091559E-003
  0.14212500000000000         -2.4920504156634500E-002
  0.14250000000000002         -5.2189385984683097E-002
  0.14287500000000003         -7.2982553757446555E-002
  0.14324999999999999         -8.4384054297680394E-002
  0.14362500000000000         -8.4625748018983427E-002
  0.14400000000000002         -7.3545593205935178E-002
  0.14437500000000003         -5.2487970120253191E-002
  0.14474999999999999         -2.4277248531026828E-002
  0.14512500000000000          7.2613338990622656E-003
  0.14550000000000002          3.7806279814809093E-002
  0.14587500000000003          6.3090636892046539E-002
  0.14624999999999999          7.9607718544212197E-002
  0.14662500000000001          8.4941430072752039E-002
  0.14700000000000002          7.8191994222969408E-002
  0.14737500000000003          6.0052342538150116E-002
  0.14774999999999999          3.2588412981953072E-002
  0.14812500000000001         -9.2675065777180496E-004
  0.14850000000000002         -3.6566429487411879E-002
  0.14887500000000004         -7.0308497509973145E-002
  0.14924999999999999         -9.8436730527040522E-002
  0.14962500000000001        -0.11811593727614467     
  0.15000000000000002        -0.12765190613658400     
  0.15037499999999998        -0.12655005161237010     
  0.15075000000000000        -0.11560705042303832     
  0.15112500000000001         -9.6547653663457633E-002
  0.15150000000000002         -7.1755846508424176E-002
  0.15187499999999998         -4.3875276016497905E-002
  0.15225000000000000         -1.5385373946564310E-002
  0.15262500000000001          1.1688963546899540E-002
  0.15300000000000002          3.5973369893206195E-002
  0.15337499999999998          5.6762320540595906E-002
  0.15375000000000000          7.3968794737263838E-002
  0.15412500000000001          8.7889526370992413E-002
  0.15450000000000003          9.8877591618422689E-002
  0.15487499999999998         0.10719155787016571     
  0.15525000000000000         0.11276227324601409     
  0.15562500000000001         0.11503219554506966     
  0.15600000000000003         0.11318026310312959     
  0.15637499999999999         0.10616924998096847     
  0.15675000000000000          9.3069537627867460E-002
  0.15712500000000001          7.3408802589898611E-002
  0.15750000000000003          4.7384266955071211E-002
  0.15787499999999999          1.6085620239956779E-002
  0.15825000000000000         -1.8495896240139312E-002
  0.15862500000000002         -5.3590759735929069E-002
  0.15900000000000003         -8.5943140879738505E-002
  0.15937499999999999        -0.11222204028658231     
  0.15975000000000000        -0.12947908293836594     
  0.16012500000000002        -0.13559513358047065     
  0.16050000000000003        -0.12954492399199016     
  0.16087499999999999        -0.11171415731195561     
  0.16125000000000000         -8.3745658516705346E-002
  0.16162500000000002         -4.8417818431768317E-002
  0.16200000000000003         -9.2937997293202415E-003
  0.16237499999999999          2.9771581846551879E-002
  0.16275000000000001          6.5065188632372498E-002
  0.16312500000000002          9.3470732237652482E-002
  0.16350000000000003         0.11280661902793143     
  0.16387499999999999         0.12196899707354811     
  0.16425000000000001         0.12095640390140794     
  0.16462500000000002         0.11076302068237631     
  0.16500000000000004          9.3108590293501298E-002
  0.16537499999999999          7.0147161572602798E-002
  0.16575000000000001          4.4184476855123778E-002
  0.16612500000000002          1.7429618732991793E-002
  0.16650000000000004         -8.2495797435087996E-003
  0.16687500000000000         -3.1305591094800800E-002
  0.16725000000000001         -5.0589520946709855E-002
  0.16762500000000002         -6.5294748232460675E-002
  0.16799999999999998         -7.4857096713219232E-002
  0.16837500000000000         -7.8867894895070845E-002
  0.16875000000000001         -7.7185828417942928E-002
  0.16912500000000003         -6.9764651835561284E-002
  0.16949999999999998         -5.6924606315752635E-002
  0.16987500000000000         -3.9408373059416427E-002
  0.17025000000000001         -1.8363175582034909E-002
  0.17062500000000003          4.4235243218446081E-003
  0.17099999999999999          2.6774424129147038E-002
  0.17137500000000000          4.6176241087104636E-002
  0.17175000000000001          6.0070162494596777E-002
  0.17212500000000003          6.6289397600040101E-002
  0.17249999999999999          6.3305677069027511E-002
  0.17287500000000000          5.0649342803915885E-002
  0.17325000000000002          2.9067832132642635E-002
  0.17362500000000003          5.5326736321007495E-004
  0.17399999999999999         -3.1781179823674233E-002
  0.17437500000000000         -6.4150729022605699E-002
  0.17475000000000002         -9.2486886978754526E-002
  0.17512500000000003        -0.11313393692928098     
  0.17549999999999999        -0.12331795905449916     
  0.17587500000000000        -0.12161356894060082     
  0.17625000000000002        -0.10818407053939880     
  0.17662500000000003         -8.4848874990209724E-002
  0.17699999999999999         -5.4637046971870662E-002
  0.17737500000000000         -2.1597759535313329E-002
  0.17775000000000002          9.9887580194699885E-003
  0.17812500000000003          3.6210601267241495E-002
  0.17849999999999999          5.4009172034485825E-002
  0.17887500000000001          6.1708754515078290E-002
  0.17925000000000002          5.9099889227173089E-002
  0.17962500000000003          4.7437429742519875E-002
  0.17999999999999999          2.9134393087413321E-002
  0.18037500000000001          7.3819475139540423E-003
  0.18075000000000002         -1.4420931573277744E-002
  0.18112500000000004         -3.3135790224559640E-002
  0.18149999999999999         -4.6177794981323135E-002
  0.18187500000000001         -5.1841812716599586E-002
  0.18225000000000002         -4.9255635775460681E-002
  0.18262500000000004         -3.8375982092052514E-002
  0.18300000000000000         -1.9762858568233344E-002
  0.18337500000000001          5.5843218659964193E-003
  0.18375000000000002          3.6417432568838892E-002
  0.18412499999999998          7.1166803376075588E-002
  0.18450000000000000         0.10810907632445486     
  0.18487500000000001         0.14520759975022191     
  0.18525000000000003         0.18004366443801320     
  0.18562499999999998         0.20991846178926390     
  0.18600000000000000         0.23191486314206150     
  0.18637500000000001         0.24318005155657019     
  0.18675000000000003         0.24131323745042960     
  0.18712499999999999         0.22470240507326383     
  0.18750000000000000         0.19296254957089309     
  0.18787500000000001         0.14709894374823107     
  0.18825000000000003          8.9685336558309972E-002
  0.18862499999999999          2.4466115066176040E-002
  0.18900000000000000         -4.3802713434615087E-002