  -1.4999999999999999E-002     0.0000000000000000     
  -1.4624999999999999E-002     0.0000000000000000     
  -1.4249999999999999E-002     0.0000000000000000     
  -1.3874999999999998E-002     0.0000000000000000     
  -1.3500000000000000E-002     0.0000000000000000     
  -1.3125000000000000E-002     0.0000000000000000     
  -1.2749999999999999E-002     0.0000000000000000     
  -1.2374999999999999E-002     0.0000000000000000     
  -1.2000000000000000E-002     0.0000000000000000     
  -1.1625000000000000E-002     0.0000000000000000     
  -1.1250000000000000E-002     0.0000000000000000     
  -1.0874999999999999E-002     0.0000000000000000     
  -1.0499999999999999E-002     0.0000000000000000     
  -1.0124999999999999E-002     0.0000000000000000     
  -9.7499999999999983E-003     0.0000000000000000     
  -9.3749999999999979E-003     0.0000000000000000     
  -8.9999999999999993E-003     0.0000000000000000     
  -8.6249999999999990E-003     0.0000000000000000     
  -8.2500000000000004E-003     0.0000000000000000     
  -7.8750000000000001E-003     0.0000000000000000     
  -7.4999999999999989E-003     0.0000000000000000     
  -7.1249999999999994E-003     0.0000000000000000     
  -6.7499999999999991E-003     0.0000000000000000     
  -6.3749999999999987E-003     0.0000000000000000     
  -5.9999999999999984E-003     0.0000000000000000     
  -5.6249999999999998E-003     0.0000000000000000     
  -5.2499999999999995E-003     0.0000000000000000     
  -4.8749999999999991E-003     0.0000000000000000     
  -4.4999999999999988E-003     0.0000000000000000     
  -4.1249999999999985E-003     0.0000000000000000     
  -3.7499999999999981E-003     0.0000000000000000     
  -3.3749999999999995E-003     0.0000000000000000     
  -2.9999999999999992E-003     0.0000000000000000     
  -2.6249999999999989E-003     0.0000000000000000     
  -2.2499999999999985E-003     0.0000000000000000     
  -1.8749999999999982E-003     0.0000000000000000     
  -1.4999999999999996E-003     0.0000000000000000     
  -1.1249999999999993E-003     0.0000000000000000     
  -7.4999999999999893E-004     0.0000000000000000     
  -3.7499999999999860E-004     0.0000000000000000     
   1.7347234759768071E-018     0.0000000000000000     
   3.7500000000000207E-004     0.0000000000000000     
   7.5000000000000067E-004     0.0000000000000000     
   1.1250000000000010E-003     0.0000000000000000     
   1.5000000000000013E-003     0.0000000000000000     
   1.8750000000000017E-003     0.0000000000000000     
   2.2500000000000020E-003     0.0000000000000000     
   2.6250000000000023E-003     0.0000000000000000     
   3.0000000000000027E-003     0.0000000000000000     
   3.3750000000000030E-003     0.0000000000000000     
   3.7499999999999999E-003     0.0000000000000000     
   4.1250000000000002E-003     0.0000000000000000     
   4.5000000000000005E-003     0.0000000000000000     
   4.8750000000000009E-003     0.0000000000000000     
   5.2500000000000012E-003     0.0000000000000000     
   5.6250000000000015E-003     0.0000000000000000     
   6.0000000000000019E-003     0.0000000000000000     
   6.3750000000000022E-003     0.0000000000000000     
   6.7500000000000025E-003     0.0000000000000000     
   7.1250000000000029E-003     0.0000000000000000     
   7.5000000000000032E-003     0.0000000000000000     
   7.8750000000000001E-003     0.0000000000000000     
   8.2500000000000004E-003     0.0000000000000000     
   8.6250000000000007E-003     0.0000000000000000     
   9.0000000000000011E-003     0.0000000000000000     
   9.3750000000000014E-003     0.0000000000000000     
   9.7500000000000017E-003     0.0000000000000000     
   1.0125000000000002E-002     0.0000000000000000     
   1.0500000000000002E-002     0.0000000000000000     
   1.0875000000000003E-002     0.0000000000000000     
   1.1250000000000003E-002     0.0000000000000000     
   1.1625000000000003E-002     0.0000000000000000     
   1.2000000000000000E-002     0.0000000000000000     
   1.2375000000000001E-002     0.0000000000000000     
   1.2750000000000001E-002     0.0000000000000000     
   1.3125000000000001E-002     0.0000000000000000     
   1.3500000000000002E-002     0.0000000000000000     
   1.3875000000000002E-002     0.0000000000000000     
   1.4250000000000002E-002     0.0000000000000000     
   1.4625000000000003E-002     0.0000000000000000     
   1.5000000000000003E-002     0.0000000000000000     
   1.5375000000000003E-002     0.0000000000000000     
   1.5750000000000004E-002     0.0000000000000000     
   1.6125000000000000E-002     0.0000000000000000     
   1.6500000000000001E-002     0.0000000000000000     
   1.6875000000000001E-002     0.0000000000000000     
   1.7250000000000001E-002     0.0000000000000000     
   1.7625000000000002E-002     0.0000000000000000     
   1.8000000000000002E-002     0.0000000000000000     
   1.8375000000000002E-002     0.0000000000000000     
   1.8750000000000003E-002     0.0000000000000000     
   1.9125000000000003E-002     0.0000000000000000     
   1.9500000000000003E-002     0.0000000000000000     
   1.9875000000000004E-002     4.1718709243657070E-053
   2.0250000000000004E-002     3.3314330641495963E-039
   2.0625000000000004E-002     3.4881269831556297E-036
   2.1000000000000005E-002     3.2221087479930712E-035
   2.1375000000000005E-002     6.0434706478919602E-034
   2.1750000000000005E-002     1.9354837016688238E-032
   2.2125000000000006E-002     8.4665035586580651E-032
   2.2499999999999999E-002    -7.2430118997722509E-031
   2.2875000000000000E-002    -2.7212981618430592E-030
   2.3250000000000000E-002     2.8770071999507508E-029
   2.3625000000000000E-002    -4.3531110148020781E-029
   2.4000000000000000E-002    -4.1165166857370019E-028
   2.4375000000000001E-002     3.2003214170955549E-027
   2.4750000000000001E-002    -1.3768315811443927E-026
   2.5125000000000001E-002     4.5531455106452381E-026
   2.5500000000000002E-002    -1.4714538896080988E-025
   2.5875000000000002E-002     1.0931905124276463E-024
   2.6250000000000002E-002     3.0433486705834825E-024
   2.6625000000000003E-002     1.3007920279484441E-023
   2.7000000000000003E-002     4.8052044359058048E-023
   2.7375000000000003E-002     1.8200506589228951E-022
   2.7750000000000004E-002     6.7095316026031060E-022
   2.8125000000000004E-002     2.4317446130193500E-021
   2.8500000000000004E-002     8.6535888422157636E-021
   2.8875000000000005E-002     3.0234229437217474E-020
   2.9250000000000005E-002     1.0371937702437678E-019
   2.9625000000000005E-002     3.4934553566130485E-019
   3.0000000000000006E-002     1.1552718876752373E-018
   3.0375000000000006E-002     3.7509278320809839E-018
   3.0750000000000000E-002     1.1956702014837596E-017
   3.1125000000000000E-002     3.7419171130879145E-017
   3.1500000000000000E-002     1.1496849570229794E-016
   3.1875000000000001E-002     3.4678354901603840E-016
   3.2250000000000001E-002     1.0268866569634198E-015
   3.2625000000000001E-002     2.9850980721068356E-015
   3.3000000000000002E-002     8.5184899119171341E-015
   3.3375000000000002E-002     2.3862800817462672E-014
   3.3750000000000002E-002     6.5617564811789872E-014
   3.4125000000000003E-002     1.7711391782041076E-013
   3.4500000000000003E-002     4.6924738425099768E-013
   3.4875000000000003E-002     1.2202745261652047E-012
   3.5250000000000004E-002     3.1145968382283320E-012
   3.5625000000000004E-002     7.8023117499211431E-012
   3.6000000000000004E-002     1.9182406947301149E-011
   3.6375000000000005E-002     4.6283558510960618E-011
   3.6750000000000005E-002     1.0959104035877226E-010
   3.7125000000000005E-002     2.5463972314599892E-010
   3.7500000000000006E-002     5.8058017606057379E-010
   3.7875000000000006E-002     1.2988547292025248E-009
   3.8250000000000006E-002     2.8509996460107214E-009
   3.8625000000000007E-002     6.1396685513104585E-009
   3.9000000000000000E-002     1.2971142633117344E-008
   3.9375000000000000E-002     2.6882394012470292E-008
   3.9750000000000001E-002     5.4648665081720625E-008
   4.0125000000000001E-002     1.0896407369702699E-007
   4.0500000000000001E-002     2.1307570983132366E-007
   4.0875000000000002E-002     4.0860310372694091E-007
   4.1250000000000002E-002     7.6830117947033882E-007
   4.1625000000000002E-002     1.4163909986038583E-006
   4.2000000000000003E-002     2.5597685179307017E-006
   4.2375000000000003E-002     4.5344736659965428E-006
   4.2750000000000003E-002     7.8723076266416270E-006
   4.3125000000000004E-002     1.3392075130183209E-005
   4.3500000000000004E-002     2.2320230580909319E-005
   4.3875000000000004E-002     3.6438397903243312E-005
   4.4250000000000005E-002     5.8256643853395328E-005
   4.4625000000000005E-002     9.1187545393877568E-005
   4.5000000000000005E-002     1.3970920629540612E-004
   4.5375000000000006E-002     2.0944555911952308E-004
   4.5750000000000006E-002     3.0713649955179507E-004
   4.6125000000000006E-002     4.4036675043154474E-004
   4.6500000000000007E-002     6.1708923534271529E-004
   4.6875000000000007E-002     8.4465512898162576E-004
   4.7250000000000000E-002     1.1286530421203745E-003
   4.7625000000000001E-002     1.4712311155861541E-003
   4.8000000000000001E-002     1.8692431041335660E-003
   4.8375000000000001E-002     2.3126625781235135E-003
   4.8750000000000002E-002     2.7826815032567938E-003
   4.9125000000000002E-002     3.2518240220789471E-003
   4.9500000000000002E-002     3.6837181942108257E-003
   4.9875000000000003E-002     4.0366298514163098E-003
   5.0250000000000003E-002     4.2660768337741467E-003
   5.0625000000000003E-002     4.3323672740660773E-003
   5.1000000000000004E-002     4.2061801098622707E-003
   5.1375000000000004E-002     3.8766999196515666E-003
   5.1750000000000004E-002     3.3564961251757977E-003
   5.2125000000000005E-002     2.6855476269500903E-003
   5.2500000000000005E-002     1.9294453199862733E-003
   5.2875000000000005E-002     1.1721578588389675E-003
   5.3250000000000006E-002     5.0722713150220351E-004
   5.3625000000000006E-002     1.8313365543448103E-005
   5.4000000000000006E-002    -2.3652745322280189E-004
   5.4375000000000007E-002    -2.4182209846081461E-004
   5.4750000000000007E-002    -3.8639689857469036E-005
   5.5125000000000007E-002     2.7041873536486918E-004
   5.5500000000000008E-002     5.2830524248458489E-004
   5.5875000000000008E-002     5.3763906424570231E-004
   5.6250000000000008E-002     8.6890853797232489E-005
   5.6625000000000009E-002    -1.0160780269219075E-003
   5.7000000000000009E-002    -2.9104440979735424E-003
   5.7375000000000009E-002    -5.6534378261104056E-003
   5.7750000000000010E-002    -9.1971887812305874E-003
   5.8125000000000010E-002    -1.3380596284553233E-002
   5.8500000000000010E-002    -1.7944579791997685E-002
   5.8875000000000011E-002    -2.2549749767114720E-002
   5.9250000000000011E-002    -2.6808303360881761E-002
   5.9624999999999997E-002    -3.0343310634469468E-002
   5.9999999999999998E-002    -3.2812766407961200E-002
   6.0374999999999998E-002    -3.3956507013303008E-002
   6.0749999999999998E-002    -3.3624008028812775E-002
   6.1124999999999999E-002    -3.1776251048089794E-002
   6.1499999999999999E-002    -2.8490523341781121E-002
   6.1874999999999999E-002    -2.3939601491292047E-002
   6.2250000000000000E-002    -1.8363909685555832E-002
   6.2625000000000000E-002    -1.2040361039303570E-002
   6.3000000000000000E-002    -5.2571385809434112E-003
   6.3375000000000001E-002     1.7189349934787473E-003
   6.3750000000000001E-002     8.6508327777874844E-003
   6.4125000000000001E-002     1.5346431078698708E-002
   6.4500000000000002E-002     2.1649282290601063E-002
   6.4875000000000002E-002     2.7429873049413626E-002
   6.5250000000000002E-002     3.2581673999091940E-002
   6.5625000000000003E-002     3.6987562361472472E-002
   6.6000000000000003E-002     4.0532951784288625E-002
   6.6375000000000003E-002     4.3082477588521809E-002
   6.6750000000000004E-002     4.4490820398177706E-002
   6.7125000000000004E-002     4.4606888491813490E-002
   6.7500000000000004E-002     4.3309178388269670E-002
   6.7875000000000005E-002     4.0506172541313536E-002
   6.8250000000000005E-002     3.6179816470242716E-002
   6.8625000000000005E-002     3.0410366040322889E-002
   6.9000000000000006E-002     2.3380216284001974E-002
   6.9375000000000006E-002     1.5406753786885708E-002
   6.9750000000000006E-002     6.8948609193574852E-003
   7.0125000000000007E-002    -1.6305915489916742E-003
   7.0500000000000007E-002    -9.6276628683441313E-003
   7.0875000000000007E-002    -1.6540566542404402E-002
   7.1250000000000008E-002    -2.1867823327385690E-002
   7.1625000000000008E-002    -2.5255117344235384E-002
   7.2000000000000008E-002    -2.6481869390607923E-002
   7.2375000000000009E-002    -2.5541595184058460E-002
   7.2750000000000009E-002    -2.2631681702051393E-002
   7.3125000000000009E-002    -1.8124899413094017E-002
   7.3500000000000010E-002    -1.2545737142460519E-002
   7.3875000000000010E-002    -6.5020595196002414E-003
   7.4250000000000010E-002    -6.1430225667499045E-004
   7.4625000000000011E-002     4.5512304110169087E-003
   7.5000000000000011E-002     8.5326319989776842E-003
   7.5375000000000011E-002     1.1028257713561111E-002
   7.5750000000000012E-002     1.1921706961004469E-002
   7.6124999999999998E-002     1.1257014519571980E-002
   7.6499999999999999E-002     9.2504012881103083E-003
   7.6874999999999999E-002     6.2448013299628985E-003
   7.7249999999999999E-002     2.6607556025228089E-003
   7.7625000000000000E-002    -1.0201155301481492E-003
   7.8000000000000000E-002    -4.3254090530390997E-003
   7.8375000000000000E-002    -6.8168082664362539E-003
   7.8750000000000001E-002    -8.1134920704573933E-003
   7.9125000000000001E-002    -7.9375128951685789E-003
   7.9500000000000001E-002    -6.1349075533403919E-003
   7.9875000000000002E-002    -2.6862802101539646E-003
   8.0250000000000002E-002     2.2666128779721940E-003
   8.0625000000000002E-002     8.4364021989697582E-003
   8.1000000000000003E-002     1.5376175433219810E-002
   8.1375000000000003E-002     2.2525252752047874E-002
   8.1750000000000003E-002     2.9244379966389289E-002
   8.2125000000000004E-002     3.4855878372097658E-002
   8.2500000000000004E-002     3.8733555491828671E-002
   8.2875000000000004E-002     4.0352191495594679E-002
   8.3250000000000005E-002     3.9348823761868088E-002
   8.3625000000000005E-002     3.5583947575689001E-002
   8.4000000000000005E-002     2.9171645482097764E-002
   8.4375000000000006E-002     2.0457310855650262E-002
   8.4750000000000006E-002     1.0034614398084479E-002
   8.5125000000000006E-002    -1.3415944512589725E-003
   8.5500000000000007E-002    -1.2811117658051421E-002
   8.5875000000000007E-002    -2.3495129716787602E-002
   8.6250000000000007E-002    -3.2607638699981775E-002
   8.6625000000000008E-002    -3.9529599983517329E-002
   8.7000000000000008E-002    -4.3904133796578336E-002
   8.7375000000000008E-002    -4.5648363022071210E-002
   8.7750000000000009E-002    -4.5046754817138657E-002
   8.8125000000000009E-002    -4.2617680363989885E-002
   8.8500000000000009E-002    -3.9165145376618728E-002
   8.8875000000000010E-002    -3.5619072890028372E-002
   8.9250000000000010E-002    -3.2905789875156181E-002
   8.9625000000000010E-002    -3.1892396058831984E-002
   9.0000000000000011E-002    -3.3174826806908413E-002
   9.0375000000000011E-002    -3.7049807646496284E-002
   9.0750000000000011E-002    -4.3421737283975262E-002
   9.1125000000000012E-002    -5.1805095104603280E-002
   9.1500000000000012E-002    -6.1361693602354071E-002
   9.1875000000000012E-002    -7.1012399858390682E-002
   9.2250000000000013E-002    -7.9519726185241210E-002
   9.2624999999999999E-002    -8.5692442945248984E-002
   9.2999999999999999E-002    -8.8478252303599320E-002
   9.3375000000000000E-002    -8.7093303569320379E-002
   9.3750000000000000E-002    -8.1137442720610589E-002
   9.4125000000000000E-002    -7.0556649180569683E-002
   9.4500000000000001E-002    -5.5703645074844252E-002
   9.4875000000000001E-002    -3.7190480730439804E-002
   9.5250000000000001E-002    -1.5882891413870566E-002
   9.5625000000000002E-002     7.2543018653454406E-003
   9.6000000000000002E-002     3.1245941067733481E-002
   9.6375000000000002E-002     5.5130072179572470E-002
   9.6750000000000003E-002     7.8052812807378136E-002
   9.7125000000000003E-002     9.9242121659125132E-002
   9.7500000000000003E-002    0.11800130642799998     
   9.7875000000000004E-002    0.13370150237991901     
   9.8250000000000004E-002    0.14574548129772658     
   9.8625000000000004E-002    0.15357043568889625     
   9.9000000000000005E-002    0.15668560477707047     
   9.9375000000000005E-002    0.15472042345365825     
   9.9750000000000005E-002    0.14743340232947627     
  0.10012500000000001         0.13488865553332735     
  0.10050000000000001         0.11735325712788744     
  0.10087500000000001          9.5480845538976927E-002
  0.10125000000000001          7.0153788257123872E-002
  0.10162500000000001          4.2524127884725330E-002
  0.10200000000000001          1.3884099927590095E-002
  0.10237500000000001         -1.4441102545793326E-002
  0.10275000000000001         -4.1151812148383177E-002
  0.10312500000000001         -6.5150974021957589E-002
  0.10350000000000001         -8.5501648627383867E-002
  0.10387500000000001        -0.10156320926022284     
  0.10425000000000001        -0.11289811850526182     
  0.10462500000000001        -0.11931327977458622     
  0.10500000000000001        -0.12080801106197427     
  0.10537500000000001        -0.11749532292135086     
  0.10575000000000001        -0.10964133719856026     
  0.10612500000000001         -9.7610951087090198E-002
  0.10650000000000001         -8.1843850377293845E-002
  0.10687500000000001         -6.2923258644402652E-002
  0.10725000000000001         -4.1521908984278058E-002
  0.10762500000000001         -1.8414781512425069E-002
  0.10800000000000001          5.4687017073283923E-003
  0.10837500000000001          2.9182985298152806E-002
  0.10875000000000001          5.1678068863363083E-002
  0.10912500000000000          7.1922643722979129E-002
  0.10950000000000000          8.8920782907259632E-002
  0.10987500000000000         0.10174338099296366     
  0.11025000000000000         0.10962799957932846     
  0.11062500000000001         0.11196596017605391     
  0.11100000000000000         0.10840279500577600     
  0.11137500000000002          9.8853737925661864E-002
  0.11175000000000000          8.3548454692839710E-002
  0.11212500000000002          6.3072248897413322E-002
  0.11250000000000000          3.8361409643527161E-002
  0.11287500000000002          1.0660835491967807E-002
  0.11325000000000000         -1.8476032188478746E-002
  0.11362500000000002         -4.7351379330080087E-002
  0.11400000000000000         -7.4187377094921278E-002
  0.11437500000000002         -9.7300217034243366E-002
  0.11475000000000000        -0.11522613814423693     
  0.11512500000000002        -0.12685503166114265     
  0.11550000000000001        -0.13151080926853032     
  0.11587500000000002        -0.12899960518434117     
  0.11625000000000001        -0.11959913780447284     
  0.11662500000000002        -0.10400029614223230     
  0.11700000000000001         -8.3221220662141993E-002
  0.11737499999999999         -5.8476960530156795E-002
  0.11775000000000001         -3.1115907508996163E-002
  0.11812499999999999         -2.4877855519243254E-003
  0.11850000000000001          2.6096908020408142E-002
  0.11887499999999999          5.3398865533775153E-002
  0.11925000000000001          7.8252325468672362E-002
  0.11962500000000000          9.9570212716319870E-002
  0.12000000000000001         0.11636038284726594     
  0.12037500000000000         0.12766799369488532     
  0.12075000000000001         0.13273368026139987     
  0.12112500000000000         0.13091481869221300     
  0.12150000000000001         0.12187151161682958     
  0.12187500000000000         0.10563494813450922     
  0.12225000000000001          8.2599551345457822E-002
  0.12262500000000000          5.3718938921383776E-002
  0.12300000000000001          2.0368937323319108E-002
  0.12337500000000000         -1.5611692001250751E-002
  0.12375000000000001         -5.2027150680048956E-002
  0.12412500000000000         -8.6522802026095594E-002
  0.12450000000000001        -0.11670647735324832     
  0.12487500000000000        -0.14041100585925220     
  0.12525000000000003        -0.15584003240551983     
  0.12562499999999999        -0.16183677582312964     
  0.12600000000000000        -0.15787811400722757     
  0.12637500000000002        -0.14431542330888089     
  0.12675000000000003        -0.12218693232781444     
  0.12712499999999999         -9.3232789355728748E-002
  0.12750000000000000         -5.9730769151441702E-002
  0.12787500000000002         -2.4171637840508867E-002
  0.12825000000000003          1.0836517578400621E-002
  0.12862499999999999          4.2981089714594876E-002
  0.12900000000000000          7.0319533634514791E-002
  0.12937500000000002          9.1509258929972706E-002
  0.12975000000000003         0.10586425832117001     
  0.13012499999999999         0.11333112026572414     
  0.13050000000000000         0.11440513829854151     
  0.13087500000000002         0.10996784602591017     
  0.13125000000000003         0.10114577874655550     
  0.13162499999999999          8.9069472618892892E-002
  0.13200000000000001          7.4808328220667741E-002
  0.13237500000000002          5.9187745898223384E-002
  0.13275000000000003          4.2844160598544220E-002
  0.13312499999999999          2.6175245349841097E-002
  0.13350000000000001          9.4933638252682143E-003
  0.13387500000000002         -6.8856237958565209E-003
  0.13424999999999998         -2.2623963798593882E-002
  0.13462499999999999         -3.7118542221392138E-002
  0.13500000000000001         -4.9575343740261076E-002
  0.13537500000000002         -5.9114021998923259E-002
  0.13574999999999998         -6.4639852498733136E-002
  0.13612500000000000         -6.5245959484810642E-002
  0.13650000000000001         -6.0290178760552808E-002
  0.13687500000000002         -4.9514960353428818E-002
  0.13724999999999998         -3.3390519443543772E-002
  0.13762500000000000         -1.3025483164514526E-002
  0.13800000000000001          9.7339362738481216E-003
  0.13837500000000003          3.2536293163350327E-002
  0.13874999999999998          5.2655656018848869E-002
  0.13912500000000000          6.7445992141099045E-002
  0.13950000000000001          7.4667500225105626E-002
  0.13987500000000003          7.2878149108335899E-002
  0.14024999999999999          6.1743336709739985E-002
  0.14062500000000000          4.2183728018709614E-002
  0.14100000000000001          1.6344936867417625E-002
  0.14137500000000003         -1.2599521374344596E-002
  0.14174999999999999         -4.0839112586218619E-002
  0.14212500000000000         -6.4506156112069307E-002
  0.14250000000000002         -8.0166747913866701E-002
  0.14287500000000003         -8.5376612805415156E-002
  0.14324999999999999         -7.9137540962932462E-002
  0.14362500000000000         -6.1960034526368682E-002
  0.14400000000000002         -3.5977690441647107E-002
  0.14437500000000003         -4.6021744483170923E-003
  0.14474999999999999          2.7972850475783757E-002
  0.14512500000000000          5.7272984162255673E-002
  0.14550000000000002          7.9194435521654907E-002
  0.14587500000000003          9.0616678007024734E-002
  0.14624999999999999          8.9752216424113046E-002
  0.14662500000000001          7.6400692161928602E-002
  0.14700000000000002          5.1971158147146500E-002
  0.14737500000000003          1.9243710237112147E-002
  0.14774999999999999         -1.8062294245353425E-002
  0.14812500000000001         -5.5664587271326484E-002
  0.14850000000000002         -8.9484814877980559E-002
  0.14887500000000004        -0.11596283872690046     
  0.14924999999999999        -0.13254362076663362     
  0.14962500000000001        -0.13798350813332397     
  0.15000000000000002        -0.13226359728333381     
  0.15037499999999998        -0.11662206119658494     
  0.15075000000000000         -9.3139241833631065E-002
  0.15112500000000001         -6.4482414384942330E-002
  0.15150000000000002         -3.3379303637452104E-002
  0.15187499999999998         -2.3469971039999918E-003
  0.15225000000000000          2.6606290215683830E-002
  0.15262500000000001          5.2214798986657797E-002
  0.15300000000000002          7.3805630196777855E-002
  0.15337499999999998          9.1236464253987987E-002
  0.15375000000000000         0.10473587075184677     
  0.15412500000000001         0.11452275367404531     
  0.15450000000000003         0.12065234097156292     
  0.15487499999999998         0.12296927068257177     
  0.15525000000000000         0.12084473589344802     
  0.15562500000000001         0.11359906941188401     
  0.15600000000000003         0.10049697892835299     
  0.15637499999999999          8.1040984815537953E-002
  0.15675000000000000          5.5421784185396145E-002
  0.15712500000000001          2.4466754113168763E-002
  0.15750000000000003         -1.0069924170369430E-002
  0.15787499999999999         -4.5650814948903579E-002
  0.15825000000000000         -7.9240857673448101E-002
  0.15862500000000002        -0.10755061420590607     
  0.15900000000000003        -0.12755312559052473     
  0.15937499999999999        -0.13688291604728717     
  0.15975000000000000        -0.13427026838523257     
  0.16012500000000002        -0.11963824500423677     
  0.16050000000000003         -9.4307208506781315E-002
  0.16087499999999999         -6.0772632498598038E-002
  0.16125000000000000         -2.2396683126479681E-002
  0.16162500000000002          1.6972966492085330E-002
  0.16200000000000003          5.3521337062442574E-002
  0.16237499999999999          8.3913689041705333E-002
  0.16275000000000001         0.10570127364421900     
  0.16312500000000002         0.11742394287094395     
  0.16350000000000003         0.11889519605635523     
  0.16387499999999999         0.11088987466673390     
  0.16425000000000001          9.5046639610918762E-002
  0.16462500000000002          7.3576241836013551E-002
  0.16500000000000004          4.8876768273623548E-002
  0.16537499999999999          2.3235314910240282E-002
  0.16575000000000001         -1.2826877094277607E-003
  0.16612500000000002         -2.3098015191307990E-002
  0.16650000000000004         -4.1122265683738807E-002
  0.16687500000000000         -5.4609119281169842E-002
  0.16725000000000001         -6.3187211754830303E-002
  0.16762500000000002         -6.6775653815994873E-002
  0.16799999999999998         -6.5324799589096691E-002
  0.16837500000000000         -5.9056234313327766E-002
  0.16875000000000001         -4.8330128330422488E-002
  0.16912500000000003         -3.3734596901347093E-002
  0.16949999999999998         -1.6277845837353821E-002
  0.16987500000000000          2.6502140238524492E-003
  0.17025000000000001          2.1259311503058886E-002
  0.17062500000000003          3.7416476929587210E-002
  0.17099999999999999          4.8935911488756201E-002
  0.17137500000000000          5.3768895900726463E-002
  0.17175000000000001          5.0496685889495838E-002
  0.17212500000000003          3.8467805311315564E-002
  0.17249999999999999          1.8208761339520201E-002
  0.17287500000000000         -8.6336364006917039E-003
  0.17325000000000002         -3.9316747239047080E-002
  0.17362500000000003         -7.0270290379069317E-002
  0.17399999999999999         -9.7670136851516834E-002
  0.17437500000000000        -0.11785893426935456     
  0.17475000000000002        -0.12797525071301585     
  0.17512500000000003        -0.12641478349143745     
  0.17549999999999999        -0.11311121544435941     
  0.17587500000000000         -8.9554275263960120E-002
  0.17625000000000002         -5.8729399832899376E-002
  0.17662500000000003         -2.4482097897211553E-002
  0.17699999999999999          8.8458121771552208E-003
  0.17737500000000000          3.7168971588836731E-002
  0.17775000000000002          5.7303683439848777E-002
  0.17812500000000003          6.7254649933518568E-002
  0.17849999999999999          6.6646749407179240E-002
  0.17887500000000001          5.6535921700673515E-002
  0.17925000000000002          3.9322115943477599E-002
  0.17962500000000003          1.8187917530744054E-002
  0.17999999999999999         -3.3079059014134533E-003
  0.18037500000000001         -2.1774997459680218E-002
  0.18075000000000002         -3.4477191273164925E-002
  0.18112500000000004         -3.9414162431564356E-002
  0.18149999999999999         -3.5645710420472952E-002
  0.18187500000000001         -2.3067533314498182E-002
  0.18225000000000002         -2.3498354908842094E-003
  0.18262500000000004          2.5311997210934807E-002
  0.18300000000000000          5.8288461192861060E-002
  0.18337500000000001          9.4744005475100895E-002
  0.18375000000000002         0.13250604346851277     
  0.18412499999999998         0.16921510870352249     
  0.18450000000000000         0.20228073343978709     
  0.18487500000000001         0.22879537145698847     
  0.18525000000000003         0.24587747199808757     
  0.18562499999999998         0.25077565613671882     
  0.18600000000000000         0.24124090244757543     
  0.18637500000000001         0.21598039688091630     
  0.18675000000000003         0.17483362516221204     
  0.18712499999999999         0.11918818267968526     
  0.18750000000000000          5.1855559993575821E-002
  0.18787500000000001         -2.2995250051234199E-002
  0.18825000000000003        -0.10036032119676006     
  0.18862499999999999        -0.17479627609787171     
  0.18900000000000000        -0.24114371862115999     