  -1.4999999999999999E-002     0.0000000000000000     
  -1.4624999999999999E-002     0.0000000000000000     
  -1.4249999999999999E-002     0.0000000000000000     
  -1.3874999999999998E-002     0.0000000000000000     
  -1.3500000000000000E-002     0.0000000000000000     
  -1.3125000000000000E-002     0.0000000000000000     
  -1.2749999999999999E-002     0.0000000000000000     
  -1.2374999999999999E-002     0.0000000000000000     
  -1.2000000000000000E-002     0.0000000000000000     
  -1.1625000000000000E-002     0.0000000000000000     
  -1.1250000000000000E-002     0.0000000000000000     
  -1.0874999999999999E-002     0.0000000000000000     
  -1.0499999999999999E-002     0.0000000000000000     
  -1.0124999999999999E-002     0.0000000000000000     
  -9.7499999999999983E-003     0.0000000000000000     
  -9.3749999999999979E-003     0.0000000000000000     
  -8.9999999999999993E-003     0.0000000000000000     
  -8.6249999999999990E-003     0.0000000000000000     
  -8.2500000000000004E-003     0.0000000000000000     
  -7.8750000000000001E-003     0.0000000000000000     
  -7.4999999999999989E-003     0.0000000000000000     
  -7.1249999999999994E-003     0.0000000000000000     
  -6.7499999999999991E-003     0.0000000000000000     
  -6.3749999999999987E-003     0.0000000000000000     
  -5.9999999999999984E-003     0.0000000000000000     
  -5.6249999999999998E-003     0.0000000000000000     
  -5.2499999999999995E-003     0.0000000000000000     
  -4.8749999999999991E-003     0.0000000000000000     
  -4.4999999999999988E-003     0.0000000000000000     
  -4.1249999999999985E-003     0.0000000000000000     
  -3.7499999999999981E-003     0.0000000000000000     
  -3.3749999999999995E-003     0.0000000000000000     
  -2.9999999999999992E-003     0.0000000000000000     
  -2.6249999999999989E-003     0.0000000000000000     
  -2.2499999999999985E-003     0.0000000000000000     
  -1.8749999999999982E-003     0.0000000000000000     
  -1.4999999999999996E-003     0.0000000000000000     
  -1.1249999999999993E-003     0.0000000000000000     
  -7.4999999999999893E-004     0.0000000000000000     
  -3.7499999999999860E-004     0.0000000000000000     
   1.7347234759768071E-018     0.0000000000000000     
   3.7500000000000207E-004     0.0000000000000000     
   7.5000000000000067E-004     0.0000000000000000     
   1.1250000000000010E-003     0.0000000000000000     
   1.5000000000000013E-003     0.0000000000000000     
   1.8750000000000017E-003     0.0000000000000000     
   2.2500000000000020E-003     0.0000000000000000     
   2.6250000000000023E-003     0.0000000000000000     
   3.0000000000000027E-003     0.0000000000000000     
   3.3750000000000030E-003     0.0000000000000000     
   3.7499999999999999E-003     0.0000000000000000     
   4.1250000000000002E-003     0.0000000000000000     
   4.5000000000000005E-003     0.0000000000000000     
   4.8750000000000009E-003     0.0000000000000000     
   5.2500000000000012E-003     0.0000000000000000     
   5.6250000000000015E-003     0.0000000000000000     
   6.0000000000000019E-003    -3.3223216599009130E-052
   6.3750000000000022E-003    -4.7171003627326297E-050
   6.7500000000000025E-003    -1.9765433194401549E-037
   7.1250000000000029E-003    -4.0621089543078339E-035
   7.5000000000000032E-003    -3.9012898389456212E-034
   7.8750000000000001E-003    -2.8548111111108291E-033
   8.2500000000000004E-003     5.4253514638239498E-032
   8.6250000000000007E-003     3.8220806654902849E-031
   9.0000000000000011E-003    -1.7375026148905069E-030
   9.3750000000000014E-003    -1.2789140976912217E-029
   9.7500000000000017E-003     8.5119254553837455E-029
   1.0125000000000002E-002    -8.5216352048379304E-030
   1.0500000000000002E-002    -1.8267422521652683E-027
   1.0875000000000003E-002     1.0841586148340693E-026
   1.1250000000000003E-002    -4.0970762796179528E-026
   1.1625000000000003E-002     1.2321667997855021E-025
   1.2000000000000000E-002    -3.7279692931182399E-025
   1.2375000000000001E-002     4.0053425588853956E-024
   1.2750000000000001E-002     1.1536581314157838E-023
   1.3125000000000001E-002     4.7544876320998569E-023
   1.3500000000000002E-002     1.7635798663002420E-022
   1.3875000000000002E-002     6.6518034378954672E-022
   1.4250000000000002E-002     2.4468105580143853E-021
   1.4625000000000003E-002     8.8471842791384292E-021
   1.5000000000000003E-002     3.1405229612965912E-020
   1.5375000000000003E-002     1.0945634052989057E-019
   1.5750000000000004E-002     3.7455280906271506E-019
   1.6125000000000000E-002     1.2583561540893274E-018
   1.6500000000000001E-002     4.1506297807858505E-018
   1.6875000000000001E-002     1.3440885457366160E-017
   1.7250000000000001E-002     4.2730954770782764E-017
   1.7625000000000002E-002     1.3336636685304035E-016
   1.8000000000000002E-002     4.0863051997350059E-016
   1.8375000000000002E-002     1.2290901656632886E-015
   1.8750000000000003E-002     3.6290978660650113E-015
   1.9125000000000003E-002     1.0518666572629148E-014
   1.9500000000000003E-002     2.9926690192071993E-014
   1.9875000000000004E-002     8.3575986327282965E-014
   2.0250000000000004E-002     2.2909393322053424E-013
   2.0625000000000004E-002     6.1637278666239948E-013
   2.1000000000000005E-002     1.6276283771316772E-012
   2.1375000000000005E-002     4.2182233108733704E-012
   2.1750000000000005E-002     1.0728893267185946E-011
   2.2125000000000006E-002     2.6779844865906369E-011
   2.2499999999999999E-002     6.5595640103384705E-011
   2.2875000000000000E-002     1.5766258068249131E-010
   2.3250000000000000E-002     3.7183635719840828E-010
   2.3625000000000000E-002     8.6043766315728708E-010
   2.4000000000000000E-002     1.9534635460331676E-009
   2.4375000000000001E-002     4.3509089674794888E-009
   2.4750000000000001E-002     9.5064912685030124E-009
   2.5125000000000001E-002     2.0374409880214000E-008
   2.5500000000000002E-002     4.2830139409790889E-008
   2.5875000000000002E-002     8.8301462797814800E-008
   2.6250000000000002E-002     1.7852736814995970E-007
   2.6625000000000003E-002     3.5392502002356290E-007
   2.7000000000000003E-002     6.8792812706498455E-007
   2.7375000000000003E-002     1.3108225947200936E-006
   2.7750000000000004E-002     2.4482494095463533E-006
   2.8125000000000004E-002     4.4814125054865899E-006
   2.8500000000000004E-002     8.0380575353641784E-006
   2.8875000000000005E-002     1.4124696236680934E-005
   2.9250000000000005E-002     2.4311995295282394E-005
   2.9625000000000005E-002     4.0979130734578797E-005
   3.0000000000000006E-002     6.7625111873229041E-005
   3.0375000000000006E-002     1.0922379554269201E-004
   3.0750000000000000E-002     1.7260621202332198E-004
   3.1125000000000000E-002     2.6677901080050191E-004
   3.1500000000000000E-002     4.0310586646305008E-004
   3.1875000000000001E-002     5.9515701907584563E-004
   3.2250000000000001E-002     8.5809266426174421E-004
   3.2625000000000001E-002     1.2072652196043097E-003
   3.3000000000000002E-002     1.6560946136113155E-003
   3.3375000000000002E-002     2.2126409923555598E-003
   3.3750000000000002E-002     2.8755485572201332E-003
   3.4125000000000003E-002     3.6292229293416415E-003
   3.4500000000000003E-002     4.4387042864619669E-003
   3.4875000000000003E-002     5.2461271004587964E-003
   3.5250000000000004E-002     5.9683358187635526E-003
   3.5625000000000004E-002     6.5000639450733923E-003
   3.6000000000000004E-002     6.7176144874079875E-003
   3.6375000000000005E-002     6.4960187093841002E-003
   3.6750000000000005E-002     5.7203620982283878E-003
   3.7125000000000005E-002     4.3135477997997499E-003
   3.7500000000000006E-002     2.2547963427462401E-003
   3.7875000000000006E-002    -3.9782818622766737E-004
   3.8250000000000006E-002    -3.4977598262113298E-003
   3.8625000000000007E-002    -6.8068125521721021E-003
   3.9000000000000000E-002    -1.0018432231611597E-002
   3.9375000000000000E-002    -1.2786771936466311E-002
   3.9750000000000001E-002    -1.4784157654432532E-002
   4.0125000000000001E-002    -1.5756794828672104E-002
   4.0500000000000001E-002    -1.5594774923846817E-002
   4.0875000000000002E-002    -1.4371422870818506E-002
   4.1250000000000002E-002    -1.2385305375019976E-002
   4.1625000000000002E-002    -1.0138146994296122E-002
   4.2000000000000003E-002    -8.3011168174137433E-003
   4.2375000000000003E-002    -7.6284638459704242E-003
   4.2750000000000003E-002    -8.8259166097965219E-003
   4.3125000000000004E-002    -1.2462309363565689E-002
   4.3500000000000004E-002    -1.8798671719267135E-002
   4.3875000000000004E-002    -2.7731829446060230E-002
   4.4250000000000005E-002    -3.8727534676366727E-002
   4.4625000000000005E-002    -5.0834226225690955E-002
   4.5000000000000005E-002    -6.2760152165515129E-002
   4.5375000000000006E-002    -7.2998714225011752E-002
   4.5750000000000006E-002    -7.9989988870463075E-002
   4.6125000000000006E-002    -8.2316901771656875E-002
   4.6500000000000007E-002    -7.8866050817346725E-002
   4.6875000000000007E-002    -6.8961666400132793E-002
   4.7250000000000000E-002    -5.2469070964983870E-002
   4.7625000000000001E-002    -2.9791431409180308E-002
   4.8000000000000001E-002    -1.8380505145287399E-003
   4.8375000000000001E-002     3.0044997324403737E-002
   4.8750000000000002E-002     6.4244358933843324E-002
   4.9125000000000002E-002     9.8978726393357558E-002
   4.9500000000000002E-002    0.13244185443815415     
   4.9875000000000003E-002    0.16292482626380639     
   5.0250000000000003E-002    0.18887689489999310     
   5.0625000000000003E-002    0.20894315858038454     
   5.1000000000000004E-002    0.22202930538727472     
   5.1375000000000004E-002    0.22724180209465988     
   5.1750000000000004E-002    0.22397840551781661     
   5.2125000000000005E-002    0.21187785358181613     
   5.2500000000000005E-002    0.19091338585228970     
   5.2875000000000005E-002    0.16144723729776628     
   5.3250000000000006E-002    0.12424738084802756     
   5.3625000000000006E-002     8.0614603735196771E-002
   5.4000000000000006E-002     3.2325157179995401E-002
   5.4375000000000007E-002    -1.8359037071754729E-002
   5.4750000000000007E-002    -6.8828407759549570E-002
   5.5125000000000007E-002   -0.11629208226772476     
   5.5500000000000008E-002   -0.15800517306605838     
   5.5875000000000008E-002   -0.19155989443994903     
   5.6250000000000008E-002   -0.21510926082546272     
   5.6625000000000009E-002   -0.22761489909799978     
   5.7000000000000009E-002   -0.22892155264409442     
   5.7375000000000009E-002   -0.21984171821653298     
   5.7750000000000010E-002   -0.20194839633125131     
   5.8125000000000010E-002   -0.17748335059161313     
   5.8500000000000010E-002   -0.14892712571216729     
   5.8875000000000011E-002   -0.11880077978792068     
   5.9250000000000011E-002    -8.9273580638461081E-002
   5.9624999999999997E-002    -6.1972937704203340E-002
   5.9999999999999998E-002    -3.7849471879791340E-002
   6.0374999999999998E-002    -1.7159753116640118E-002
   6.0749999999999998E-002     3.9367331294926674E-004
   6.1124999999999999E-002     1.5507119963759915E-002
   6.1499999999999999E-002     2.8938100824522302E-002
   6.1874999999999999E-002     4.1351657542266725E-002
   6.2250000000000000E-002     5.3022171662622131E-002
   6.2625000000000000E-002     6.3733527978394294E-002
   6.3000000000000000E-002     7.2823987661207804E-002
   6.3375000000000001E-002     7.9159850431541903E-002
   6.3750000000000001E-002     8.1461882795364648E-002
   6.4125000000000001E-002     7.8425848582448318E-002
   6.4500000000000002E-002     6.9103665017649529E-002
   6.4875000000000002E-002     5.3100610613944624E-002
   6.5250000000000002E-002     3.0739528732754831E-002
   6.5625000000000003E-002     3.2342128134836869E-003
   6.6000000000000003E-002    -2.7409622692502071E-002
   6.6375000000000003E-002    -5.8491048076540146E-002
   6.6750000000000004E-002    -8.6889823400326957E-002
   6.7125000000000004E-002   -0.10935318459234938     
   6.7500000000000004E-002   -0.12299467092920854     
   6.7875000000000005E-002   -0.12555245512060267     
   6.8250000000000005E-002   -0.11586918567759838     
   6.8625000000000005E-002    -9.4095754090518444E-002
   6.9000000000000006E-002    -6.1767400857301577E-002
   6.9375000000000006E-002    -2.1834639268928067E-002
   6.9750000000000006E-002     2.1698501199201720E-002
   7.0125000000000007E-002     6.4176371716980485E-002
   7.0500000000000007E-002    0.10081934197680020     
   7.0875000000000007E-002    0.12743086062708311     
   7.1250000000000008E-002    0.14092941366187317     
   7.1625000000000008E-002    0.13987486321276124     
   7.2000000000000008E-002    0.12465789351745349     
   7.2375000000000009E-002     9.7570981418018399E-002
   7.2750000000000009E-002     6.2502224843635185E-002
   7.3125000000000009E-002     2.4357372246620042E-002
   7.3500000000000010E-002    -1.1485228060906296E-002
   7.3875000000000010E-002    -4.0102154175087279E-002
   7.4250000000000010E-002    -5.7529979794832584E-002
   7.4625000000000011E-002    -6.1453131259915666E-002
   7.5000000000000011E-002    -5.1362736909650833E-002
   7.5375000000000011E-002    -2.8605432317323983E-002
   7.5750000000000012E-002     3.8486000467866733E-003
   7.6124999999999998E-002     4.1964928491576882E-002
   7.6499999999999999E-002     8.1202006999311738E-002
   7.6874999999999999E-002    0.11714460009276953     
   7.7249999999999999E-002    0.14605147399423579     
   7.7625000000000000E-002    0.16532382736828327     
   7.8000000000000000E-002    0.17357124528946000     
   7.8375000000000000E-002    0.17073352779798420     
   7.8750000000000001E-002    0.15778599024987816     
   7.9125000000000001E-002    0.13639492813697199     
   7.9500000000000001E-002    0.10867123052875015     
   7.9875000000000002E-002     7.6608999945077805E-002
   8.0250000000000002E-002     4.2024549048272790E-002
   8.0625000000000002E-002     6.3505029520931370E-003
   8.1000000000000003E-002    -2.9371466017732852E-002
   8.1375000000000003E-002    -6.4187626178563037E-002
   8.1750000000000003E-002    -9.7210614441780058E-002
   8.2125000000000004E-002   -0.12720365259890123     
   8.2500000000000004E-002   -0.15264706841513243     
   8.2875000000000004E-002   -0.17167408371335469     
   8.3250000000000005E-002   -0.18228744357430673     
   8.3625000000000005E-002   -0.18275666987698053     
   8.4000000000000005E-002   -0.17204509982012633     
   8.4375000000000006E-002   -0.15026267402259080     
   8.4750000000000006E-002   -0.11892103462313687     
   8.5125000000000006E-002    -8.1137536292549883E-002
   8.5500000000000007E-002    -4.1279356815552642E-002
   8.5875000000000007E-002    -4.6401544550945303E-003
   8.6250000000000007E-002     2.3435032681881914E-002
   8.6625000000000008E-002     3.8208660401020035E-002
   8.7000000000000008E-002     3.6544052597527986E-002
   8.7375000000000008E-002     1.7362360683138393E-002
   8.7750000000000009E-002    -1.7983599717766405E-002
   8.8125000000000009E-002    -6.5645286717497156E-002
   8.8500000000000009E-002   -0.11999454005320905     
   8.8875000000000010E-002   -0.17403772572395027     
   8.9250000000000010E-002   -0.22051235525622512     
   8.9625000000000010E-002   -0.25289868956214678     
   9.0000000000000011E-002   -0.26603451996061378     
   9.0375000000000011E-002   -0.25691845361746535     
   9.0750000000000011E-002   -0.22489192682590806     
   9.1125000000000012E-002   -0.17150727956450112     
   9.1500000000000012E-002   -0.10030121470604328     
   9.1875000000000012E-002    -1.6084521089483383E-002
   9.2250000000000013E-002     7.5581759254910369E-002
   9.2624999999999999E-002    0.16917124497811203     
   9.2999999999999999E-002    0.25958878518153533     
   9.3375000000000000E-002    0.34263918514943614     
   9.3750000000000000E-002    0.41509381844368315     
   9.4125000000000000E-002    0.47479731469287223     
   9.4500000000000001E-002    0.52035626669481516     
   9.4875000000000001E-002    0.55119217236564133     
   9.5250000000000001E-002    0.56708312013740236     
   9.5625000000000002E-002    0.56804885212919098     
   9.6000000000000002E-002    0.55435776359883793     
   9.6375000000000002E-002    0.52603592783364839     
   9.6750000000000003E-002    0.48317499878320991     
   9.7125000000000003E-002    0.42562366065844492     
   9.7500000000000003E-002    0.35295178991840354     
   9.7875000000000004E-002    0.26459634860289455     
   9.8250000000000004E-002    0.15990280168843535     
   9.8625000000000004E-002     3.8290789073170746E-002
   9.9000000000000005E-002   -0.10021548229744329     
   9.9375000000000005E-002   -0.25449747897568309     
   9.9750000000000005E-002   -0.42177273047584218     
  0.10012500000000001        -0.59706509126704943     
  0.10050000000000001        -0.77270959419899676     
  0.10087500000000001        -0.93842581004097425     
  0.10125000000000001         -1.0817240828346475     
  0.10162500000000001         -1.1888364898415236     
  0.10200000000000001         -1.2461469955307392     
  0.10237500000000001         -1.2419334391880956     
  0.10275000000000001         -1.1681747781966583     
  0.10312500000000001         -1.0222556879058091     
  0.10350000000000001        -0.80803385524942628     
  0.10387500000000001        -0.53614718685230645     
  0.10425000000000001        -0.22377275438865352     
  0.10462500000000001         0.10710862378556234     
  0.10500000000000001         0.43162439183652129     
  0.10537500000000001         0.72458034329289878     
  0.10575000000000001         0.96344923491491430     
  0.10612500000000001          1.1305103556916061     
  0.10650000000000001          1.2149625417325667     
  0.10687500000000001          1.2137214214717860     
  0.10725000000000001          1.1318335914400888     
  0.10762500000000001         0.98128518978151735     
  0.10800000000000001         0.77961406252828214     
  0.10837500000000001         0.54784912773664551     
  0.10875000000000001         0.30791489398906102     
  0.10912500000000000          8.0522644711862212E-002
  0.10950000000000000        -0.11663023426241931     
  0.10987500000000000        -0.27065500634722406     
  0.11025000000000000        -0.37394795901009947     
  0.11062500000000001        -0.42441272717710971     
  0.11100000000000000        -0.42502579257223005     
  0.11137500000000002        -0.38285999875560700     
  0.11175000000000000        -0.30760592776645085     
  0.11212500000000002        -0.21063069640096432     
  0.11250000000000000        -0.10327479330763734     
  0.11287500000000002          4.2350601465725082E-003
  0.11325000000000000         0.10320299883160979     
  0.11362500000000002         0.18721136588882514     
  0.11400000000000000         0.25207281474871912     
  0.11437500000000002         0.29546990436977388     
  0.11475000000000000         0.31667565506988260     
  0.11512500000000002         0.31609638852578759     
  0.11550000000000001         0.29490578388891941     
  0.11587500000000002         0.25487288443780154     
  0.11625000000000001         0.19811813472878653     
  0.11662500000000002         0.12748758037498437     
  0.11700000000000001          4.6310194812058239E-002
  0.11737499999999999         -4.1334545582707549E-002
  0.11775000000000001        -0.13057986042158742     
  0.11812499999999999        -0.21618854692431766     
  0.11850000000000001        -0.29275675161230830     
  0.11887499999999999        -0.35518116120563659     
  0.11925000000000001        -0.39932967080849197     
  0.11962500000000000        -0.42245731411437815     
  0.12000000000000001        -0.42350177323891369     
  0.12037500000000000        -0.40347676161724183     
  0.12075000000000001        -0.36497812410463093     
  0.12112500000000000        -0.31216083331025102     
  0.12150000000000001        -0.25016247684671689     
  0.12187500000000000        -0.18417432744876600     
  0.12225000000000001        -0.11929074312684337     
  0.12262500000000000         -5.9556238683583784E-002
  0.12300000000000001         -7.8852390502626209E-003
  0.12337500000000000          3.3983380479934426E-002
  0.12375000000000001          6.5609112600142100E-002
  0.12412500000000000          8.7460060488204830E-002
  0.12450000000000001         0.10040274629098357     
  0.12487500000000000         0.10569383649309798     
  0.12525000000000003         0.10456781637371214     
  0.12562499999999999          9.8096182582082483E-002
  0.12600000000000000          8.7193463741705751E-002
  0.12637500000000002          7.2856104878981101E-002
  0.12675000000000003          5.6172471858905386E-002
  0.12712499999999999          3.8372327318502097E-002
  0.12750000000000000          2.1125469931335461E-002
  0.12787500000000002          6.1238314451081688E-003
  0.12825000000000003         -4.9434699335931583E-003
  0.12862499999999999         -1.0465894938155458E-002
  0.12900000000000000         -9.6097322058554188E-003
  0.12937500000000002         -2.0563295060143554E-003
  0.12975000000000003          1.1718639166390927E-002
  0.13012499999999999          3.0388893441496354E-002
  0.13050000000000000          5.2201223320740876E-002
  0.13087500000000002          7.5013426085172225E-002
  0.13125000000000003          9.6745915654636569E-002
  0.13162499999999999         0.11561509059638758     
  0.13200000000000001         0.13036509326214307     
  0.13237500000000002         0.14010071120366308     
  0.13275000000000003         0.14462257560983210     
  0.13312499999999999         0.14377606601488685     
  0.13350000000000001         0.13749786123724422     
  0.13387500000000002         0.12571509236388259     
  0.13424999999999998         0.10795104359427482     
  0.13462499999999999          8.3958418211334360E-002
  0.13500000000000001          5.3881419876290672E-002
  0.13537500000000002          1.8803423972398071E-002
  0.13574999999999998         -1.8631131226736819E-002
  0.13612500000000000         -5.3849072338582993E-002
  0.13650000000000001         -8.0500778193636879E-002
  0.13687500000000002         -9.1096668503640454E-002
  0.13724999999999998         -7.8407681984135225E-002
  0.13762500000000000         -3.7151607669780179E-002
  0.13800000000000001          3.3872254577541935E-002
  0.13837500000000003         0.13001273353399037     
  0.13874999999999998         0.23987576558857415     
  0.13912500000000000         0.34560935995171588     
  0.13950000000000001         0.42464767884823529     
  0.13987500000000003         0.45336901471093050     
  0.14024999999999999         0.41115728377877292     
  0.14062500000000000         0.28522155670481097     
  0.14100000000000001          7.5117989645996447E-002
  0.14137500000000003        -0.20544918961450515     
  0.14174999999999999        -0.52770783638783225     
  0.14212500000000000        -0.85090274628332485     
  0.14250000000000002         -1.1273619944522706     
  0.14287500000000003         -1.3093277790626328     
  0.14324999999999999         -1.3568692460762444     
  0.14362500000000000         -1.2452563298345685     
  0.14400000000000002        -0.96976004487927803     
  0.14437500000000003        -0.54825053780579969     
  0.14474999999999999         -2.0226840413045441E-002
  0.14512500000000000         0.55807200704459614     
  0.14550000000000002          1.1204417196406058     
  0.14587500000000003          1.5995028927059112     
  0.14624999999999999          1.9355767619418467     
  0.14662500000000001          2.0844971513508428     
  0.14700000000000002          2.0228724059601788     
  0.14737500000000003          1.7511661220165322     
  0.14774999999999999          1.2928401471882360     
  0.14812500000000001         0.69133052683904039     
  0.14850000000000002          4.4526475607911675E-003
  0.14887500000000004        -0.70244951576707093     
  0.14924999999999999         -1.3635147447629916     
  0.14962500000000001         -1.9194968240604093     
  0.15000000000000002         -2.3227055967917196     
  0.15037499999999998         -2.5412940653084810     
  0.15075000000000000         -2.5610484011023611     
  0.15112500000000001         -2.3850322503995942     
  0.15150000000000002         -2.0325273333644294     
  0.15187499999999998         -1.5355679206073787     
  0.15225000000000000        -0.93564088574534798     
  0.15262500000000001        -0.27918282726939175     
  0.15300000000000002         0.38617897894898590     
  0.15337499999999998          1.0151568804230524     
  0.15375000000000000          1.5684802552359627     
  0.15412500000000001          2.0141908283648116     
  0.15450000000000003          2.3297066027030793     
  0.15487499999999998          2.5022214119388111     
  0.15525000000000000          2.5287144809650459     
  0.15562500000000001          2.4146969690878879     
  0.15600000000000003          2.1740014911937795     
  0.15637499999999999          1.8261596238782041     
  0.15675000000000000          1.3955440467541218     
  0.15712500000000001         0.90925835050170234     
  0.15750000000000003         0.39526260594348700     
  0.15787499999999999        -0.11888320513506323     
  0.15825000000000000        -0.60753143517084507     
  0.15862500000000002         -1.0481138772306171     
  0.15900000000000003         -1.4221690012469055     
  0.15937499999999999         -1.7151973258716753     
  0.15975000000000000         -1.9180688949541502     
  0.16012500000000002         -2.0260601705318142     
  0.16050000000000003         -2.0390698265061120     
  0.16087499999999999         -1.9617439559726439     
  0.16125000000000000         -1.8017979543311495     
  0.16162500000000002         -1.5705193712040857     
  0.16200000000000003         -1.2813900823143325     
  0.16237499999999999        -0.94950903773715090     
  0.16275000000000001        -0.59065568370835564     
  0.16312500000000002        -0.22106615214714176     
  0.16350000000000003         0.14404649939086830     
  0.16387499999999999         0.49038784024725246     
  0.16425000000000001         0.80513094768719640     
  0.16462500000000002          1.0779411508216583     
  0.16500000000000004          1.3002816884433974     
  0.16537499999999999          1.4661571987028108     
  0.16575000000000001          1.5721931488426604     
  0.16612500000000002          1.6171280197864282     
  0.16650000000000004          1.6021050795038037     
  0.16687500000000000          1.5303955015043924     
  0.16725000000000001          1.4068136985991417     
  0.16762500000000002          1.2377563112522936     
  0.16799999999999998          1.0309305766718664     
  0.16837500000000000         0.79438516430639150     
  0.16875000000000001         0.53733938013570559     
  0.16912500000000003         0.26852520409877345     
  0.16949999999999998         -2.9882385122960153E-003
  0.16987500000000000        -0.26839393413966478     
  0.17025000000000001        -0.52000018058363129     
  0.17062500000000003        -0.75019071061804743     
  0.17099999999999999        -0.95285032262614988     
  0.17137500000000000         -1.1227299119208576     
  0.17175000000000001         -1.2557046033884343     
  0.17212500000000003         -1.3490183952452106     
  0.17249999999999999         -1.4013281005106450     
  0.17287500000000000         -1.4120709403808762     
  0.17325000000000002         -1.3824321869463463     
  0.17362500000000003         -1.3144619443856433     
  0.17399999999999999         -1.2112957250592520     
  0.17437500000000000         -1.0767015647177940     
  0.17475000000000002        -0.91573841516148025     
  0.17512500000000003        -0.73350446888328469     
  0.17549999999999999        -0.53540526399241384     
  0.17587500000000000        -0.32771336611262203     
  0.17625000000000002        -0.11572788557725011     
  0.17662500000000003          9.4845144275561177E-002
  0.17699999999999999         0.29848012046627892     
  0.17737500000000000         0.49078653657286697     
  0.17775000000000002         0.66716623308520995     
  0.17812500000000003         0.82386934330468908     
  0.17849999999999999         0.95810980004071389     
  0.17887500000000001          1.0671092503655726     
  0.17925000000000002          1.1493456005898401     
  0.17962500000000003          1.2037362526155546     
  0.17999999999999999          1.2296526011701534     
  0.18037500000000001          1.2277265199696390     
  0.18075000000000002          1.1982009761126811     
  0.18112500000000004          1.1427868451246286     
  0.18149999999999999          1.0634451240994443     
  0.18187500000000001         0.96190538468770348     
  0.18225000000000002         0.84153908503296448     
  0.18262500000000004         0.70517141743865319     
  0.18300000000000000         0.55601503629103222     
  0.18337500000000001         0.39793818599042624     
  0.18375000000000002         0.23460286458458945     
  0.18412499999999998          6.9532890162622471E-002
  0.18450000000000000         -9.3502919101985174E-002
  0.18487500000000001        -0.25076658844436917     
  0.18525000000000003        -0.39953829308531574     
  0.18562499999999998        -0.53650384612328461     
  0.18600000000000000        -0.65910136887345483     
  0.18637500000000001        -0.76555843255634082     
  0.18675000000000003        -0.85393145046124763     
  0.18712499999999999        -0.92306143856829959     
  0.18750000000000000        -0.97248266281849105     
  0.18787500000000001         -1.0016046749215710     
  0.18825000000000003         -1.0108006845275128     
  0.18862499999999999         -1.0006786723865897     
  0.18900000000000000        -0.97173903385617089     