  -1.4999999999999999E-002     0.0000000000000000     
  -1.4624999999999999E-002     0.0000000000000000     
  -1.4249999999999999E-002     0.0000000000000000     
  -1.3874999999999998E-002     0.0000000000000000     
  -1.3500000000000000E-002     0.0000000000000000     
  -1.3125000000000000E-002     0.0000000000000000     
  -1.2749999999999999E-002     0.0000000000000000     
  -1.2374999999999999E-002     0.0000000000000000     
  -1.2000000000000000E-002     0.0000000000000000     
  -1.1625000000000000E-002     0.0000000000000000     
  -1.1250000000000000E-002     0.0000000000000000     
  -1.0874999999999999E-002     0.0000000000000000     
  -1.0499999999999999E-002     0.0000000000000000     
  -1.0124999999999999E-002     0.0000000000000000     
  -9.7499999999999983E-003     0.0000000000000000     
  -9.3749999999999979E-003     0.0000000000000000     
  -8.9999999999999993E-003     0.0000000000000000     
  -8.6249999999999990E-003     0.0000000000000000     
  -8.2500000000000004E-003     0.0000000000000000     
  -7.8750000000000001E-003     0.0000000000000000     
  -7.4999999999999989E-003     0.0000000000000000     
  -7.1249999999999994E-003     0.0000000000000000     
  -6.7499999999999991E-003     0.0000000000000000     
  -6.3749999999999987E-003     0.0000000000000000     
  -5.9999999999999984E-003     0.0000000000000000     
  -5.6249999999999998E-003     0.0000000000000000     
  -5.2499999999999995E-003     0.0000000000000000     
  -4.8749999999999991E-003     0.0000000000000000     
  -4.4999999999999988E-003     0.0000000000000000     
  -4.1249999999999985E-003     0.0000000000000000     
  -3.7499999999999981E-003     0.0000000000000000     
  -3.3749999999999995E-003     0.0000000000000000     
  -2.9999999999999992E-003     0.0000000000000000     
  -2.6249999999999989E-003     0.0000000000000000     
  -2.2499999999999985E-003     0.0000000000000000     
  -1.8749999999999982E-003     0.0000000000000000     
  -1.4999999999999996E-003     0.0000000000000000     
  -1.1249999999999993E-003     0.0000000000000000     
  -7.4999999999999893E-004     0.0000000000000000     
  -3.7499999999999860E-004     0.0000000000000000     
   1.7347234759768071E-018     0.0000000000000000     
   3.7500000000000207E-004     0.0000000000000000     
   7.5000000000000067E-004     0.0000000000000000     
   1.1250000000000010E-003     0.0000000000000000     
   1.5000000000000013E-003     0.0000000000000000     
   1.8750000000000017E-003     0.0000000000000000     
   2.2500000000000020E-003     0.0000000000000000     
   2.6250000000000023E-003     0.0000000000000000     
   3.0000000000000027E-003     0.0000000000000000     
   3.3750000000000030E-003     0.0000000000000000     
   3.7499999999999999E-003     2.7623219579693485E-051
   4.1250000000000002E-003     1.8075116315483623E-049
   4.5000000000000005E-003     1.3067765460322730E-036
   4.8750000000000009E-003    -7.1663363028674241E-035
   5.2500000000000012E-003    -1.1389389768257723E-033
   5.6250000000000015E-003    -1.6737105444965978E-032
   6.0000000000000019E-003    -8.5933413469262630E-032
   6.3750000000000022E-003     5.8804647630251959E-031
   6.7500000000000025E-003     4.1851297893512651E-030
   7.1250000000000029E-003    -2.5500859773243609E-029
   7.5000000000000032E-003    -4.5139291635489321E-029
   7.8750000000000001E-003     8.2636693289667363E-028
   8.2500000000000004E-003    -3.5035224527548675E-027
   8.6250000000000007E-003     6.8975152692612224E-027
   9.0000000000000011E-003     8.2292319324442594E-028
   9.3750000000000014E-003    -6.6752679170238609E-026
   9.7500000000000017E-003     4.3027153639186527E-025
   1.0125000000000002E-002     6.3777716263148082E-024
   1.0500000000000002E-002     2.0960679417539653E-023
   1.0875000000000003E-002     8.2154055203006607E-023
   1.1250000000000003E-002     3.0858638816368361E-022
   1.1625000000000003E-002     1.1529281117648859E-021
   1.2000000000000000E-002     4.2210357670135175E-021
   1.2375000000000001E-002     1.5176369599661044E-020
   1.2750000000000001E-002     5.3577905578868759E-020
   1.3125000000000001E-002     1.8570909485054078E-019
   1.3500000000000002E-002     6.3199657268571753E-019
   1.3875000000000002E-002     2.1116346452070209E-018
   1.4250000000000002E-002     6.9268679797881109E-018
   1.4625000000000003E-002     2.2308078359032277E-017
   1.5000000000000003E-002     7.0532133745258904E-017
   1.5375000000000003E-002     2.1892592756658808E-016
   1.5750000000000004E-002     6.6709763374371472E-016
   1.6125000000000000E-002     1.9954810411984008E-015
   1.6500000000000001E-002     5.8595502170431224E-015
   1.6875000000000001E-002     1.6889906306344287E-014
   1.7250000000000001E-002     4.7788416938545696E-014
   1.7625000000000002E-002     1.3272039530004046E-013
   1.8000000000000002E-002     3.6179340642661857E-013
   1.8375000000000002E-002     9.6799886514957145E-013
   1.8750000000000003E-002     2.5419358899990690E-012
   1.9125000000000003E-002     6.5510636810872822E-012
   1.9500000000000003E-002     1.6569213687258177E-011
   1.9875000000000004E-002     4.1125802729415055E-011
   2.0250000000000004E-002     1.0016759836406386E-010
   2.0625000000000004E-002     2.3939861636132148E-010
   2.1000000000000005E-002     5.6139824907221541E-010
   2.1375000000000005E-002     1.2916687652553568E-009
   2.1750000000000005E-002     2.9156627112126279E-009
   2.2125000000000006E-002     6.4564727641207930E-009
   2.2499999999999999E-002     1.4024885145075437E-008
   2.2875000000000000E-002     2.9882140002540034E-008
   2.3250000000000000E-002     6.2444449115511273E-008
   2.3625000000000000E-002     1.2797012981166238E-007
   2.4000000000000000E-002     2.5716599121318716E-007
   2.4375000000000001E-002     5.0670203029519406E-007
   2.4750000000000001E-002     9.7876953522149274E-007
   2.5125000000000001E-002     1.8532549378239310E-006
   2.5500000000000002E-002     3.4391775972588084E-006
   2.5875000000000002E-002     6.2541147546826661E-006
   2.6250000000000002E-002     1.1142672869682362E-005
   2.6625000000000003E-002     1.9446259718456559E-005
   2.7000000000000003E-002     3.3236029257608995E-005
   2.7375000000000003E-002     5.5615193672093040E-005
   2.7750000000000004E-002     9.1089133619442613E-005
   2.8125000000000004E-002     1.4597370018184770E-004
   2.8500000000000004E-002     2.2880212913241110E-004
   2.8875000000000005E-002     3.5060343530038304E-004
   2.9250000000000005E-002     5.2496629306044438E-004
   2.9625000000000005E-002     7.6757918497214579E-004
   3.0000000000000006E-002     1.0951962377287023E-003
   3.0375000000000006E-002     1.5234485443786495E-003
   3.0750000000000000E-002     2.0638377877139789E-003
   3.1125000000000000E-002     2.7191618598734132E-003
   3.1500000000000000E-002     3.4782032469451215E-003
   3.1875000000000001E-002     4.3097116378715784E-003
   3.2250000000000001E-002     5.1568447156819814E-003
   3.2625000000000001E-002     5.9332927633240270E-003
   3.3000000000000002E-002     6.5225725637056108E-003
   3.3375000000000002E-002     6.7833149721576672E-003
   3.3750000000000002E-002     6.5581150251214802E-003
   3.4125000000000003E-002     5.6949463983710031E-003
   3.4500000000000003E-002     4.0674275812568345E-003
   3.4875000000000003E-002     1.6063901727894402E-003
   3.5250000000000004E-002    -1.6744874447673713E-003
   3.5625000000000004E-002    -5.6536141662985526E-003
   3.6000000000000004E-002    -1.0094557047258037E-002
   3.6375000000000005E-002    -1.4650966779502922E-002
   3.6750000000000005E-002    -1.8899224226089313E-002
   3.7125000000000005E-002    -2.2387817531961729E-002
   3.7500000000000006E-002    -2.4711653429341313E-002
   3.7875000000000006E-002    -2.5588102673321862E-002
   3.8250000000000006E-002    -2.4936788936654145E-002
   3.8625000000000007E-002    -2.2929165752891466E-002
   3.9000000000000000E-002    -2.0013867378999590E-002
   3.9375000000000000E-002    -1.6887640998313795E-002
   3.9750000000000001E-002    -1.4414368612745865E-002
   4.0125000000000001E-002    -1.3501863141912594E-002
   4.0500000000000001E-002    -1.4945434158275633E-002
   4.0875000000000002E-002    -1.9254093334235549E-002
   4.1250000000000002E-002    -2.6519358210640033E-002
   4.1625000000000002E-002    -3.6283754886956704E-002
   4.2000000000000003E-002    -4.7546822264568418E-002
   4.2375000000000003E-002    -5.8785490577982089E-002
   4.2750000000000003E-002    -6.8112500230412765E-002
   4.3125000000000004E-002    -7.3468880360705160E-002
   4.3500000000000004E-002    -7.2885421114366133E-002
   4.3875000000000004E-002    -6.4730483906653882E-002
   4.4250000000000005E-002    -4.7974541487349781E-002
   4.4625000000000005E-002    -2.2343933090997387E-002
   4.5000000000000005E-002     1.1566400824852410E-002
   4.5375000000000006E-002     5.2281022023799445E-002
   4.5750000000000006E-002     9.7521714527787559E-002
   4.6125000000000006E-002    0.14438076937068645     
   4.6500000000000007E-002    0.18953186555446899     
   4.6875000000000007E-002    0.22949765825815635     
   4.7250000000000000E-002    0.26090095984735584     
   4.7625000000000001E-002    0.28074508038890822     
   4.8000000000000001E-002    0.28667434831114602     
   4.8375000000000001E-002    0.27714466178643388     
   4.8750000000000002E-002    0.25163671273436738     
   4.9125000000000002E-002    0.21072792514495481     
   4.9500000000000002E-002    0.15617003750409145     
   4.9875000000000003E-002     9.0825018384054310E-002
   5.0250000000000003E-002     1.8553684956518546E-002
   5.0625000000000003E-002    -5.6017686323336452E-002
   5.1000000000000004E-002   -0.12788168847615411     
   5.1375000000000004E-002   -0.19193831777827394     
   5.1750000000000004E-002   -0.24360339091284705     
   5.2125000000000005E-002   -0.27918696055945502     
   5.2500000000000005E-002   -0.29629577528316109     
   5.2875000000000005E-002   -0.29421168452045521     
   5.3250000000000006E-002   -0.27394102188162106     
   5.3625000000000006E-002   -0.23818348923668209     
   5.4000000000000006E-002   -0.19107279109264724     
   5.4375000000000007E-002   -0.13771276402846439     
   5.4750000000000007E-002    -8.3541073273577196E-002
   5.5125000000000007E-002    -3.3740780062826249E-002
   5.5500000000000008E-002     7.3505677219847243E-003
   5.5875000000000008E-002     3.6834040700450280E-002
   5.6250000000000008E-002     5.3407216185208203E-002
   5.6625000000000009E-002     5.7483906101585013E-002
   5.7000000000000009E-002     5.1002393669754349E-002
   5.7375000000000009E-002     3.7002928119015330E-002
   5.7750000000000010E-002     1.9057076505160628E-002
   5.8125000000000010E-002     8.1320234115075159E-004
   5.8500000000000010E-002    -1.4755078101464748E-002
   5.8875000000000011E-002    -2.5556218441085098E-002
   5.9250000000000011E-002    -3.0712614609492969E-002
   5.9624999999999997E-002    -3.0552213248957981E-002
   5.9999999999999998E-002    -2.6341929937032604E-002
   6.0374999999999998E-002    -2.0055530056815363E-002
   6.0749999999999998E-002    -1.3770095175284016E-002
   6.1124999999999999E-002    -9.3530459324621135E-003
   6.1499999999999999E-002    -7.9746455544167007E-003
   6.1874999999999999E-002    -9.9300186844657971E-003
   6.2250000000000000E-002    -1.4512912278095567E-002
   6.2625000000000000E-002    -2.0153979845232380E-002
   6.3000000000000000E-002    -2.4735244299421585E-002
   6.3375000000000001E-002    -2.5961619369715815E-002
   6.3750000000000001E-002    -2.1897259600157676E-002
   6.4125000000000001E-002    -1.1359588593488214E-002
   6.4500000000000002E-002     5.6710031700052390E-003
   6.4875000000000002E-002     2.7927703302819937E-002
   6.5250000000000002E-002     5.2901889933655286E-002
   6.5625000000000003E-002     7.7178641614655902E-002
   6.6000000000000003E-002     9.6983160653291323E-002
   6.6375000000000003E-002    0.10878762002538866     
   6.6750000000000004E-002    0.11011142006557992     
   6.7125000000000004E-002    0.10003867021021774     
   6.7500000000000004E-002     7.9632175669203747E-002
   6.7875000000000005E-002     5.1927126847246978E-002
   6.8250000000000005E-002     2.1678222509018012E-002
   6.8625000000000005E-002    -5.3742247080192963E-003
   6.9000000000000006E-002    -2.3357720921417347E-002
   6.9375000000000006E-002    -2.7243854569805132E-002
   6.9750000000000006E-002    -1.3848995336610201E-002
   7.0125000000000007E-002     1.7660037253118807E-002
   7.0500000000000007E-002     6.5267328483919140E-002
   7.0875000000000007E-002    0.12437722621210923     
   7.1250000000000008E-002    0.18828645220521295     
   7.1625000000000008E-002    0.24893628950621716     
   7.2000000000000008E-002    0.29802911197326531     
   7.2375000000000009E-002    0.32794123999864838     
   7.2750000000000009E-002    0.33257980122814884     
   7.3125000000000009E-002    0.30808185952820039     
   7.3500000000000010E-002    0.25312795561543555     
   7.3875000000000010E-002    0.16894940418492588     
   7.4250000000000010E-002     5.9240308576188699E-002
   7.4625000000000011E-002    -7.0232695073713269E-002
   7.5000000000000011E-002   -0.21202632590892073     
   7.5375000000000011E-002   -0.35747233745885398     
   7.5750000000000012E-002   -0.49721190398047521     
   7.6124999999999998E-002   -0.62166475448918934     
   7.6499999999999999E-002   -0.72161430615842836     
   7.6874999999999999E-002   -0.78880541533893545     
   7.7249999999999999E-002   -0.81666770305910241     
   7.7625000000000000E-002   -0.80091064559188907     
   7.8000000000000000E-002   -0.74017203836555434     
   7.8375000000000000E-002   -0.63632231839175912     
   7.8750000000000001E-002   -0.49447719326944684     
   7.9125000000000001E-002   -0.32285914640527669     
   7.9500000000000001E-002   -0.13168971605843344     
   7.9875000000000002E-002     6.7500782674344922E-002
   8.0250000000000002E-002    0.26343771087870299     
   8.0625000000000002E-002    0.44613113018616768     
   8.1000000000000003E-002    0.60805015872911783     
   8.1375000000000003E-002    0.74450128187889619     
   8.1750000000000003E-002    0.85378093614123962     
   8.2125000000000004E-002    0.93642750239854822     
   8.2500000000000004E-002    0.99438208573675002     
   8.2875000000000004E-002     1.0296815117796032     
   8.3250000000000005E-002     1.0431989712828307     
   8.3625000000000005E-002     1.0339043431663477     
   8.4000000000000005E-002    0.99850142295218847     
   8.4375000000000006E-002    0.93176840766462288     
   8.4750000000000006E-002    0.82770264626646917     
   8.5125000000000006E-002    0.68073385976686696     
   8.5500000000000007E-002    0.48777829086714430     
   8.5875000000000007E-002    0.24956716462859346     
   8.6250000000000007E-002    -2.7962259920992799E-002
   8.6625000000000008E-002   -0.33316292296667049     
   8.7000000000000008E-002   -0.64910464066796525     
   8.7375000000000008E-002   -0.95439325229985383     
   8.7750000000000009E-002    -1.2253192911224378     
   8.8125000000000009E-002    -1.4381984547305542     
   8.8500000000000009E-002    -1.5721140481150473     
   8.8875000000000010E-002    -1.6114980604546043     
   8.9250000000000010E-002    -1.5484367969944370     
   8.9625000000000010E-002    -1.3840633802944522     
   9.0000000000000011E-002    -1.1293759589019445     
   9.0375000000000011E-002   -0.80429112014892135     
   9.0750000000000011E-002   -0.43614201941736941     
   9.1125000000000012E-002    -5.7233193429830381E-002
   9.1500000000000012E-002    0.29905314706793762     
   9.1875000000000012E-002    0.60140593424156574     
   9.2250000000000013E-002    0.82432324916774757     
   9.2624999999999999E-002    0.95120973556145794     
   9.2999999999999999E-002    0.97569669677315662     
   9.3375000000000000E-002    0.90271491775286328     
   9.3750000000000000E-002    0.74723279842466495     
   9.4125000000000000E-002    0.53247141571890766     
   9.4500000000000001E-002    0.28650985693757042     
   9.4875000000000001E-002     3.8785225060065168E-002
   9.5250000000000001E-002   -0.18340409532009511     
   9.5625000000000002E-002   -0.35806047926493922     
   9.6000000000000002E-002   -0.47071056264680489     
   9.6375000000000002E-002   -0.51535475128686070     
   9.6750000000000003E-002   -0.49421257937582919     
   9.7125000000000003E-002   -0.41666162019219338     
   9.7500000000000003E-002   -0.29689937268649297     
   9.7875000000000004E-002   -0.15172521992122362     
   9.8250000000000004E-002     1.8858430374846004E-003
   9.8625000000000004E-002    0.14905200309687688     
   9.9000000000000005E-002    0.27838110186922460     
   9.9375000000000005E-002    0.38236151799566664     
   9.9750000000000005E-002    0.45779438045570686     
  0.10012500000000001         0.50474760908589611     
  0.10050000000000001         0.52568695368763940     
  0.10087500000000001         0.52439757475512416     
  0.10125000000000001         0.50468487880371971     
  0.10162500000000001         0.46992764176162394     
  0.10200000000000001         0.42267794303775696     
  0.10237500000000001         0.36463077737297439     
  0.10275000000000001         0.29710552951167324     
  0.10312500000000001         0.22158483939373547     
  0.10350000000000001         0.14004181867802251     
  0.10387500000000001          5.5588837544169101E-002
  0.10425000000000001         -2.7925916704786495E-002
  0.10462500000000001        -0.10586654380997759     
  0.10500000000000001        -0.17341713026231365     
  0.10537500000000001        -0.22625771970401798     
  0.10575000000000001        -0.26111707936459572     
  0.10612500000000001        -0.27646748790358711     
  0.10650000000000001        -0.27257535437367586     
  0.10687500000000001        -0.25139360294670809     
  0.10725000000000001        -0.21657261139607137     
  0.10762500000000001        -0.17263106330022132     
  0.10800000000000001        -0.12440981321938338     
  0.10837500000000001         -7.6737099524221031E-002
  0.10875000000000001         -3.3693131731639125E-002
  0.10912500000000000          1.3417392124880183E-003
  0.10950000000000000          2.5672829873784976E-002
  0.10987500000000000          3.7298361959315553E-002
  0.11025000000000000          3.4557793123816585E-002
  0.11062500000000001          1.5960749443611123E-002
  0.11100000000000000         -1.9488881296666736E-002
  0.11137500000000002         -7.2174008424007952E-002
  0.11175000000000000        -0.14101287753448091     
  0.11212500000000002        -0.22268599488546476     
  0.11250000000000000        -0.31099826359698179     
  0.11287500000000002        -0.39634440521929137     
  0.11325000000000000        -0.46587909006353567     
  0.11362500000000002        -0.50493561349099414     
  0.11400000000000000        -0.49857505681788683     
  0.11437500000000002        -0.43466804652681940     
  0.11475000000000000        -0.30694082874107131     
  0.11512500000000002        -0.11762694150996564     
  0.11550000000000001         0.12035614256061014     
  0.11587500000000002         0.38310883400318768     
  0.11625000000000001         0.63762449404468313     
  0.11662500000000002         0.84536275311323505     
  0.11700000000000001         0.96776189941645308     
  0.11737499999999999         0.97279666307366708     
  0.11775000000000001         0.84107109697844573     
  0.11812499999999999         0.57111303419886217     
  0.11850000000000001         0.18155587366460119     
  0.11887499999999999        -0.28921525350770838     
  0.11925000000000001        -0.78693240425289135     
  0.11962500000000000         -1.2482923820913530     
  0.12000000000000001         -1.6092027637350730     
  0.12037500000000000         -1.8142444761638512     
  0.12075000000000001         -1.8246238427445214     
  0.12112500000000000         -1.6240331686565195     
  0.12150000000000001         -1.2215024152817935     
  0.12187500000000000        -0.65053878209120075     
  0.12225000000000001          3.4769791338597700E-002
  0.12262500000000000         0.76679372030088300     
  0.12300000000000001          1.4724085133223268     
  0.12337500000000000          2.0814073060668652     
  0.12375000000000001          2.5346561513346435     
  0.12412500000000000          2.7895464644232102     
  0.12450000000000001          2.8240477997682127     
  0.12487500000000000          2.6375258937655390     
  0.12525000000000003          2.2493364297947473     
  0.12562499999999999          1.6957878700132385     
  0.12600000000000000          1.0252664622610572     
  0.12637500000000002         0.29300775513024813     
  0.12675000000000003        -0.44449355112258204     
  0.12712499999999999         -1.1342616240740719     
  0.12750000000000000         -1.7306082540847605     
  0.12787500000000002         -2.1982883792067236     
  0.12825000000000003         -2.5137483934568761     
  0.12862499999999999         -2.6658674453301492     
  0.12900000000000000         -2.6551352031197579     
  0.12937500000000002         -2.4922408859676470     
  0.12975000000000003         -2.1964228029675863     
  0.13012499999999999         -1.7929915432852832     
  0.13050000000000000         -1.3116167514637516     
  0.13087500000000002        -0.78325370924656035     
  0.13125000000000003        -0.23892895214541959     
  0.13162499999999999         0.29201010788971082     
  0.13200000000000001         0.78383025724071964     
  0.13237500000000002          1.2146834512044757     
  0.13275000000000003          1.5678420939076056     
  0.13312499999999999          1.8314956891465741     
  0.13350000000000001          1.9989555265473182     
  0.13387500000000002          2.0687019003061833     
  0.13424999999999998          2.0435711912677181     
  0.13462499999999999          1.9299314686415578     
  0.13500000000000001          1.7380116374245818     
  0.13537500000000002          1.4800346787206520     
  0.13574999999999998          1.1701092805938602     
  0.13612500000000000         0.82383541793571524     
  0.13650000000000001         0.45625414764214844     
  0.13687500000000002          8.2933555670833270E-002
  0.13724999999999998        -0.28153229992189005     
  0.13762500000000000        -0.62444178952069973     
  0.13800000000000001        -0.93416246519130242     
  0.13837500000000003         -1.2012614844726057     
  0.13874999999999998         -1.4187576346465711     
  0.13912500000000000         -1.5811404782421645     
  0.13950000000000001         -1.6858552696375986     
  0.13987500000000003         -1.7321484125994278     
  0.14024999999999999         -1.7209659790262304     
  0.14062500000000000         -1.6555969352722868     
  0.14100000000000001         -1.5402616340594275     
  0.14137500000000003         -1.3810530965270098     
  0.14174999999999999         -1.1844398522588118     
  0.14212500000000000        -0.95809565856037349     
  0.14250000000000002        -0.70979320014046421     
  0.14287500000000003        -0.44752451538363158     
  0.14324999999999999        -0.17942381181966272     
  0.14362500000000000          8.7158014145700569E-002
  0.14400000000000002         0.34483526496236211     
  0.14437500000000003         0.58708310583805778     
  0.14474999999999999         0.80808817266860022     
  0.14512500000000000          1.0029131977219030     
  0.14550000000000002          1.1674666013946233     
  0.14587500000000003          1.2985897091541156     
  0.14624999999999999          1.3942621404987219     
  0.14662500000000001          1.4533856549783097     
  0.14700000000000002          1.4757753198286911     
  0.14737500000000003          1.4621957846057949     
  0.14774999999999999          1.4142593377570116     
  0.14812500000000001          1.3342294182225174     
  0.14850000000000002          1.2253561754302535     
  0.14887500000000004          1.0909829324623268     
  0.14924999999999999         0.93533441615628643     
  0.14962500000000001         0.76274214855622269     
  0.15000000000000002         0.57774822591257924     
  0.15037499999999998         0.38533083202176649     
  0.15075000000000000         0.18967724304543843     
  0.15112500000000001         -4.5605401798177042E-003
  0.15150000000000002        -0.19294560705865893     
  0.15187499999999998        -0.37197693107350438     
  0.15225000000000000        -0.53808098992223918     
  0.15262500000000001        -0.68804428831045417     
  0.15300000000000002        -0.81963924570059099     
  0.15337499999999998        -0.93063117228969594     
  0.15375000000000000         -1.0195563078351895     
  0.15412500000000001         -1.0856361210469128     
  0.15450000000000003         -1.1282039988667965     
  0.15487499999999998         -1.1474379609150629     
  0.15525000000000000         -1.1436522608397364     
  0.15562500000000001         -1.1181408265876180     
  0.15600000000000003         -1.0718122194184923     
  0.15637499999999999         -1.0063899301343020     
  0.15675000000000000        -0.92384363834583572     
  0.15712500000000001        -0.82627424990020504     
  0.15750000000000003        -0.71611955651992387     
  0.15787499999999999        -0.59584650435958364     
  0.15825000000000000        -0.46807609988855314     
  0.15862500000000002        -0.33560349466420775     
  0.15900000000000003        -0.20118019285344801     
  0.15937499999999999         -6.7241596039737714E-002
  0.15975000000000000          6.3624662270272817E-002
  0.16012500000000002         0.18901664384369010     
  0.16050000000000003         0.30687543153857166     
  0.16087499999999999         0.41525974979928693     
  0.16125000000000000         0.51268937868187325     
  0.16162500000000002         0.59774354659633699     
  0.16200000000000003         0.66948188004000919     
  0.16237499999999999         0.72714427412655147     
  0.16275000000000001         0.77042379425143115     
  0.16312500000000002         0.79932145348911154     
  0.16350000000000003         0.81375955683991807     
  0.16387499999999999         0.81415782025186356     
  0.16425000000000001         0.80124102429745936     
  0.16462500000000002         0.77557764442258681     
  0.16500000000000004         0.73795673251170291     
  0.16537499999999999         0.68954579513563785     
  0.16575000000000001         0.63131198088636731     
  0.16612500000000002         0.56459336032020269     
  0.16650000000000004         0.49072626407213948     
  0.16687500000000000         0.41099898645920568     
  0.16725000000000001         0.32696752565325771     
  0.16762500000000002         0.24015980467252745     
  0.16799999999999998         0.15202984016193144     
  0.16837500000000000          6.4115403799011331E-002
  0.16875000000000001         -2.2157973873862750E-002
  0.16912500000000003        -0.10534583290158703     
  0.16949999999999998        -0.18408837321912497     
  0.16987500000000000        -0.25729655311653155     
  0.17025000000000001        -0.32390576891885642     
  0.17062500000000003        -0.38308378183350300     
  0.17099999999999999        -0.43413969629270460     
  0.17137500000000000        -0.47660893607282040     
  0.17175000000000001        -0.51032100950296788     
  0.17212500000000003        -0.53497819165381999     
  0.17249999999999999        -0.55074042790166433     
  0.17287500000000000        -0.55758703133222853     
  0.17325000000000002        -0.55582669629351800     
  0.17362500000000003        -0.54593719367042826     
  0.17399999999999999        -0.52799005788935938     
  0.17437500000000000        -0.50283252074917639     
  0.17475000000000002        -0.47093093573873290     
  0.17512500000000003        -0.43279518701095143     
  0.17549999999999999        -0.38936850730037953     
  0.17587500000000000        -0.34122081643749275     
  0.17625000000000002        -0.28920572365007507     
  0.17662500000000003        -0.23434239721256578     
  0.17699999999999999        -0.17736778291250183     
  0.17737500000000000        -0.11935559941948354     
  0.17775000000000002         -6.1233279849063155E-002
  0.17812500000000003         -4.0794876325114873E-003
  0.17849999999999999          5.1390080786768280E-002
  0.17887500000000001         0.10413898791144152     
  0.17925000000000002         0.15347771818474265     
  0.17962500000000003         0.19882629110909089     
  0.17999999999999999         0.23952470194535869     
  0.18037500000000001         0.27519812453415149     
  0.18075000000000002         0.30569806781472003     
  0.18112500000000004         0.33054950284242279     
  0.18149999999999999         0.34975588851332440     
  0.18187500000000001         0.36348075379525668     
  0.18225000000000002         0.37150887049053427     
  0.18262500000000004         0.37416738417587259     
  0.18300000000000000         0.37158870633166352     
  0.18337500000000001         0.36396617582536150     
  0.18375000000000002         0.35157196955536185     
  0.18412499999999998         0.33471402573428444     
  0.18450000000000000         0.31357410528070673     
  0.18487500000000001         0.28868114512803533     
  0.18525000000000003         0.26026994987596980     
  0.18562499999999998         0.22890630639926923     
  0.18600000000000000         0.19502355163516666     
  0.18637500000000001         0.15919837206358792     
  0.18675000000000003         0.12210332370678156     
  0.18712499999999999          8.4203555467708927E-002
  0.18750000000000000          4.6227181012225886E-002
  0.18787500000000001          8.7500020425816394E-003
  0.18825000000000003         -2.7600595193103913E-002
  0.18862499999999999         -6.2285023035414416E-002
  0.18900000000000000         -9.4843126683681209E-002