  -1.4999999999999999E-002     0.0000000000000000     
  -1.4624999999999999E-002     0.0000000000000000     
  -1.4249999999999999E-002     0.0000000000000000     
  -1.3874999999999998E-002     0.0000000000000000     
  -1.3500000000000000E-002     0.0000000000000000     
  -1.3125000000000000E-002     0.0000000000000000     
  -1.2749999999999999E-002     0.0000000000000000     
  -1.2374999999999999E-002     0.0000000000000000     
  -1.2000000000000000E-002     0.0000000000000000     
  -1.1625000000000000E-002     0.0000000000000000     
  -1.1250000000000000E-002     0.0000000000000000     
  -1.0874999999999999E-002     0.0000000000000000     
  -1.0499999999999999E-002     0.0000000000000000     
  -1.0124999999999999E-002     0.0000000000000000     
  -9.7499999999999983E-003     0.0000000000000000     
  -9.3749999999999979E-003     0.0000000000000000     
  -8.9999999999999993E-003     0.0000000000000000     
  -8.6249999999999990E-003     0.0000000000000000     
  -8.2500000000000004E-003     0.0000000000000000     
  -7.8750000000000001E-003     0.0000000000000000     
  -7.4999999999999989E-003     0.0000000000000000     
  -7.1249999999999994E-003     0.0000000000000000     
  -6.7499999999999991E-003     0.0000000000000000     
  -6.3749999999999987E-003     0.0000000000000000     
  -5.9999999999999984E-003     0.0000000000000000     
  -5.6249999999999998E-003     0.0000000000000000     
  -5.2499999999999995E-003     0.0000000000000000     
  -4.8749999999999991E-003     0.0000000000000000     
  -4.4999999999999988E-003     0.0000000000000000     
  -4.1249999999999985E-003     0.0000000000000000     
  -3.7499999999999981E-003     0.0000000000000000     
  -3.3749999999999995E-003     0.0000000000000000     
  -2.9999999999999992E-003     0.0000000000000000     
  -2.6249999999999989E-003     0.0000000000000000     
  -2.2499999999999985E-003     0.0000000000000000     
  -1.8749999999999982E-003     0.0000000000000000     
  -1.4999999999999996E-003     0.0000000000000000     
  -1.1249999999999993E-003     0.0000000000000000     
  -7.4999999999999893E-004     0.0000000000000000     
  -3.7499999999999860E-004     0.0000000000000000     
   1.7347234759768071E-018     0.0000000000000000     
   3.7500000000000207E-004     0.0000000000000000     
   7.5000000000000067E-004     0.0000000000000000     
   1.1250000000000010E-003     0.0000000000000000     
   1.5000000000000013E-003     0.0000000000000000     
   1.8750000000000017E-003     0.0000000000000000     
   2.2500000000000020E-003     0.0000000000000000     
   2.6250000000000023E-003     0.0000000000000000     
   3.0000000000000027E-003     0.0000000000000000     
   3.3750000000000030E-003     0.0000000000000000     
   3.7499999999999999E-003     0.0000000000000000     
   4.1250000000000002E-003     0.0000000000000000     
   4.5000000000000005E-003     0.0000000000000000     
   4.8750000000000009E-003     0.0000000000000000     
   5.2500000000000012E-003     0.0000000000000000     
   5.6250000000000015E-003     0.0000000000000000     
   6.0000000000000019E-003     0.0000000000000000     
   6.3750000000000022E-003     0.0000000000000000     
   6.7500000000000025E-003     0.0000000000000000     
   7.1250000000000029E-003     0.0000000000000000     
   7.5000000000000032E-003     0.0000000000000000     
   7.8750000000000001E-003     0.0000000000000000     
   8.2500000000000004E-003     0.0000000000000000     
   8.6250000000000007E-003     0.0000000000000000     
   9.0000000000000011E-003     0.0000000000000000     
   9.3750000000000014E-003     0.0000000000000000     
   9.7500000000000017E-003     0.0000000000000000     
   1.0125000000000002E-002     0.0000000000000000     
   1.0500000000000002E-002     0.0000000000000000     
   1.0875000000000003E-002     0.0000000000000000     
   1.1250000000000003E-002     0.0000000000000000     
   1.1625000000000003E-002     0.0000000000000000     
   1.2000000000000000E-002     0.0000000000000000     
   1.2375000000000001E-002     6.4195116941558495E-051
   1.2750000000000001E-002     2.6519579492905064E-038
   1.3125000000000001E-002    -5.9375777873792135E-036
   1.3500000000000002E-002    -3.1426931025279831E-034
   1.3875000000000002E-002    -3.1183360767328655E-033
   1.4250000000000002E-002     1.3115601468835961E-032
   1.4625000000000003E-002     2.6417350601921978E-031
   1.5000000000000003E-002    -2.2494001960549807E-031
   1.5375000000000003E-002    -9.2134843950891473E-030
   1.5750000000000004E-002     3.3412070572595800E-029
   1.6125000000000000E-002     9.2172305927031930E-029
   1.6500000000000001E-002    -1.2287689434073005E-027
   1.6875000000000001E-002     5.8080632927973227E-027
   1.7250000000000001E-002    -1.9692796571095561E-026
   1.7625000000000002E-002     5.5482779880111024E-026
   1.8000000000000002E-002    -1.6420947570244689E-025
   1.8375000000000002E-002     2.5532229868101514E-024
   1.8750000000000003E-002     7.9855562518039624E-024
   1.9125000000000003E-002     3.1892753090746798E-023
   1.9500000000000003E-002     1.1921982647163443E-022
   1.9875000000000004E-002     4.4874500033937720E-022
   2.0250000000000004E-002     1.6511362541696328E-021
   2.0625000000000004E-002     5.9678324113586162E-021
   2.1000000000000005E-002     2.1178408656466332E-020
   2.1375000000000005E-002     7.3792127320264966E-020
   2.1750000000000005E-002     2.5244367525304842E-019
   2.2125000000000006E-002     8.4789912782972224E-019
   2.2499999999999999E-002     2.7960532731805115E-018
   2.2875000000000000E-002     9.0523090196823995E-018
   2.3250000000000000E-002     2.8772603855143286E-017
   2.3625000000000000E-002     8.9782350097972578E-017
   2.4000000000000000E-002     2.7503766680263424E-016
   2.4375000000000001E-002     8.2712084522441117E-016
   2.4750000000000001E-002     2.4418158264164726E-015
   2.5125000000000001E-002     7.0763988493816748E-015
   2.5500000000000002E-002     2.0130554256044803E-014
   2.5875000000000002E-002     5.6212640673345011E-014
   2.6250000000000002E-002     1.5407302751232723E-013
   2.6625000000000003E-002     4.1450400063291195E-013
   2.7000000000000003E-002     1.0945084321438529E-012
   2.7375000000000003E-002     2.8365435497225778E-012
   2.7750000000000004E-002     7.2146617500157048E-012
   2.8125000000000004E-002     1.8008863710305789E-011
   2.8500000000000004E-002     4.4114533504481619E-011
   2.8875000000000005E-002     1.0604282772624312E-010
   2.9250000000000005E-002     2.5012861043583826E-010
   2.9625000000000005E-002     5.7890710090710407E-010
   3.0000000000000006E-002     1.3145891155378870E-009
   3.0375000000000006E-002     2.9287678899184697E-009
   3.0750000000000000E-002     6.4012006646640345E-009
   3.1125000000000000E-002     1.3724485624077468E-008
   3.1500000000000000E-002     2.8863697780740061E-008
   3.1875000000000001E-002     5.9538082490760877E-008
   3.2250000000000001E-002     1.2044614769532397E-007
   3.2625000000000001E-002     2.3894429788049712E-007
   3.3000000000000002E-002     4.6480574475645851E-007
   3.3375000000000002E-002     8.8646459947709673E-007
   3.3750000000000002E-002     1.6573801980142030E-006
   3.4125000000000003E-002     3.0373248330544345E-006
   3.4500000000000003E-002     5.4551363886650767E-006
   3.4875000000000003E-002     9.6007263688586798E-006
   3.5250000000000004E-002     1.6553723643338112E-005
   3.5625000000000004E-002     2.7958109569499069E-005
   3.6000000000000004E-002     4.6242960919713790E-005
   3.6375000000000005E-002     7.4884320494431812E-005
   3.6750000000000005E-002     1.1869775261327494E-004
   3.7125000000000005E-002     1.8409819952787726E-004
   3.7500000000000006E-002     2.7930141035301765E-004
   3.7875000000000006E-002     4.1431333658410171E-004
   3.8250000000000006E-002     6.0065161425292327E-004
   3.8625000000000007E-002     8.5057787680561242E-004
   3.9000000000000000E-002     1.1758345726855398E-003
   3.9375000000000000E-002     1.5855442742590891E-003
   3.9750000000000001E-002     2.0837271624708012E-003
   4.0125000000000001E-002     2.6660463082288084E-003
   4.0500000000000001E-002     3.3165256930381523E-003
   4.0875000000000002E-002     4.0048535815986096E-003
   4.1250000000000002E-002     4.6845154988979449E-003
   4.1625000000000002E-002     5.2935530549203273E-003
   4.2000000000000003E-002     5.7572537463713228E-003
   4.2375000000000003E-002     5.9957038739810835E-003
   4.2750000000000003E-002     5.9328291063526009E-003
   4.3125000000000004E-002     5.5101774053219216E-003
   4.3500000000000004E-002     4.6999054665815753E-003
   4.3875000000000004E-002     3.5180801848456920E-003
   4.4250000000000005E-002     2.0310540218028703E-003
   4.4625000000000005E-002     3.5986729400642510E-004
   4.5000000000000005E-002    -1.3326206377310516E-003
   4.5375000000000006E-002    -2.8562507431205151E-003
   4.5750000000000006E-002    -4.0266552049404202E-003
   4.6125000000000006E-002    -4.6950545991907029E-003
   4.6500000000000007E-002    -4.7873793368116485E-003
   4.6875000000000007E-002    -4.3327086362396575E-003
   4.7250000000000000E-002    -3.4786414288254242E-003
   4.7625000000000001E-002    -2.4933498849575735E-003
   4.8000000000000001E-002    -1.7363772974974012E-003
   4.8375000000000001E-002    -1.6211263430855559E-003
   4.8750000000000002E-002    -2.5481335385953096E-003
   4.9125000000000002E-002    -4.8421669049131030E-003
   4.9500000000000002E-002    -8.6808106916962061E-003
   4.9875000000000003E-002    -1.4053800336086289E-002
   5.0250000000000003E-002    -2.0724956068456125E-002
   5.0625000000000003E-002    -2.8254446828715852E-002
   5.1000000000000004E-002    -3.6017842091280165E-002
   5.1375000000000004E-002    -4.3291591574475971E-002
   5.1750000000000004E-002    -4.9320403136249719E-002
   5.2125000000000005E-002    -5.3421089110282365E-002
   5.2500000000000005E-002    -5.5057596330442354E-002
   5.2875000000000005E-002    -5.3905540457850107E-002
   5.3250000000000006E-002    -4.9889519484161031E-002
   5.3625000000000006E-002    -4.3178001749547459E-002
   5.4000000000000006E-002    -3.4158159566386667E-002
   5.4375000000000007E-002    -2.3376528297914374E-002
   5.4750000000000007E-002    -1.1473946817221518E-002
   5.5125000000000007E-002     8.9653430271600314E-004
   5.5500000000000008E-002     1.3127003211334821E-002
   5.5875000000000008E-002     2.4712382240693956E-002
   5.6250000000000008E-002     3.5279068978394480E-002
   5.6625000000000009E-002     4.4589325450623121E-002
   5.7000000000000009E-002     5.2532850185804392E-002
   5.7375000000000009E-002     5.9100015145437577E-002
   5.7750000000000010E-002     6.4350704291417329E-002
   5.8125000000000010E-002     6.8375681753728670E-002
   5.8500000000000010E-002     7.1281623314138190E-002
   5.8875000000000011E-002     7.3175092707452802E-002
   5.9250000000000011E-002     7.4140840542117628E-002
   5.9624999999999997E-002     7.4278435017699276E-002
   5.9999999999999998E-002     7.3678196136428273E-002
   6.0374999999999998E-002     7.2450980576659843E-002
   6.0749999999999998E-002     7.0713493192679930E-002
   6.1124999999999999E-002     6.8575503461608817E-002
   6.1499999999999999E-002     6.6117692953709478E-002
   6.1874999999999999E-002     6.3352725996938072E-002
   6.2250000000000000E-002     6.0190968715176901E-002
   6.2625000000000000E-002     5.6417392109123561E-002
   6.3000000000000000E-002     5.1680379651240664E-002
   6.3375000000000001E-002     4.5519201323589782E-002
   6.3750000000000001E-002     3.7428629587283296E-002
   6.4125000000000001E-002     2.6923039171366944E-002
   6.4500000000000002E-002     1.3666314011778882E-002
   6.4875000000000002E-002    -2.4460923962510081E-003
   6.5250000000000002E-002    -2.1184353178621093E-002
   6.5625000000000003E-002    -4.1936210024285159E-002
   6.6000000000000003E-002    -6.3728995335219793E-002
   6.6375000000000003E-002    -8.5242761488463686E-002
   6.6750000000000004E-002   -0.10500662691320187     
   6.7125000000000004E-002   -0.12144979230573960     
   6.7500000000000004E-002   -0.13318315229898470     
   6.7875000000000005E-002   -0.13910113809983848     
   6.8250000000000005E-002   -0.13851235663266531     
   6.8625000000000005E-002   -0.13129799632652420     
   6.9000000000000006E-002   -0.11781166134773163     
   6.9375000000000006E-002    -9.8935270870426251E-002
   6.9750000000000006E-002    -7.5926576604260582E-002
   7.0125000000000007E-002    -5.0269082839343504E-002
   7.0500000000000007E-002    -2.3567154314665419E-002
   7.0875000000000007E-002     2.6377874484472515E-003
   7.1250000000000008E-002     2.6960782166888794E-002
   7.1625000000000008E-002     4.8231004063225218E-002
   7.2000000000000008E-002     6.5561393770780213E-002
   7.2375000000000009E-002     7.8302153311357800E-002
   7.2750000000000009E-002     8.6041847936441415E-002
   7.3125000000000009E-002     8.8588884155456044E-002
   7.3500000000000010E-002     8.5879387938153487E-002
   7.3875000000000010E-002     7.8060822297348606E-002
   7.4250000000000010E-002     6.5412711247928759E-002
   7.4625000000000011E-002     4.8394195576130131E-002
   7.5000000000000011E-002     2.7664825116540521E-002
   7.5375000000000011E-002     4.1055893183630935E-003
   7.5750000000000012E-002    -2.1229724871239659E-002
   7.6124999999999998E-002    -4.7081968206574142E-002
   7.6499999999999999E-002    -7.2081622239702894E-002
   7.6874999999999999E-002    -9.4851965695406271E-002
   7.7249999999999999E-002   -0.11401780341050312     
   7.7625000000000000E-002   -0.12843408836671738     
   7.8000000000000000E-002   -0.13716797694173030     
   7.8375000000000000E-002   -0.13963431857386926     
   7.8750000000000001E-002   -0.13565047975472844     
   7.9125000000000001E-002   -0.12537275150548222     
   7.9500000000000001E-002   -0.10937823030362864     
   7.9875000000000002E-002    -8.8479865802822633E-002
   8.0250000000000002E-002    -6.3747959076477567E-002
   8.0625000000000002E-002    -3.6310657479080723E-002
   8.1000000000000003E-002    -7.3415399549650682E-003
   8.1375000000000003E-002     2.2109504810204253E-002
   8.1750000000000003E-002     5.1117013605818787E-002
   8.2125000000000004E-002     7.8934969661586515E-002
   8.2500000000000004E-002    0.10499454486535564     
   8.2875000000000004E-002    0.12880253493479710     
   8.3250000000000005E-002    0.14996950401296205     
   8.3625000000000005E-002    0.16803464413960853     
   8.4000000000000005E-002    0.18244055404765422     
   8.4375000000000006E-002    0.19253387237473737     
   8.4750000000000006E-002    0.19750228557357641     
   8.5125000000000006E-002    0.19643414892058092     
   8.5500000000000007E-002    0.18849765454117787     
   8.5875000000000007E-002    0.17298592930057155     
   8.6250000000000007E-002    0.14950701610273487     
   8.6625000000000008E-002    0.11820250044372507     
   8.7000000000000008E-002     7.9757443190451555E-002
   8.7375000000000008E-002     3.5578905967039248E-002
   8.7750000000000009E-002    -1.2251733113143676E-002
   8.8125000000000009E-002    -6.1095284008712926E-002
   8.8500000000000009E-002   -0.10782940309283311     
   8.8875000000000010E-002   -0.14918441444379266     
   8.9250000000000010E-002   -0.18197613924338824     
   8.9625000000000010E-002   -0.20342584053342974     
   9.0000000000000011E-002   -0.21146709049791185     
   9.0375000000000011E-002   -0.20503688436759010     
   9.0750000000000011E-002   -0.18417996414627691     
   9.1125000000000012E-002   -0.15019843205551509     
   9.1500000000000012E-002   -0.10561128591665919     
   9.1875000000000012E-002    -5.3915699240948058E-002
   9.2250000000000013E-002     6.2197301665776073E-004
   9.2624999999999999E-002     5.3406361907380268E-002
   9.2999999999999999E-002     9.9898399828073234E-002
   9.3375000000000000E-002    0.13615151723555077     
   9.3750000000000000E-002    0.15914595698796491     
   9.4125000000000000E-002    0.16713176150327896     
   9.4500000000000001E-002    0.15986518085260820     
   9.4875000000000001E-002    0.13851845576220245     
   9.5250000000000001E-002    0.10568432407593993     
   9.5625000000000002E-002     6.4951092205050187E-002
   9.6000000000000002E-002     2.0581762343655743E-002
   9.6375000000000002E-002    -2.2977576894577259E-002
   9.6750000000000003E-002    -6.1587091269658736E-002
   9.7125000000000003E-002    -9.1798174872523675E-002
   9.7500000000000003E-002   -0.11119742200308291     
   9.7875000000000004E-002   -0.11861752527949014     
   9.8250000000000004E-002   -0.11417369299153149     
   9.8625000000000004E-002    -9.9187645572828192E-002
   9.9000000000000005E-002    -7.6021046841594470E-002
   9.9375000000000005E-002    -4.7724445521548552E-002
   9.9750000000000005E-002    -1.7781298982740071E-002
  0.10012500000000001          1.0358420226852920E-002
  0.10050000000000001          3.3608274358671940E-002
  0.10087500000000001          4.9520717512135229E-002
  0.10125000000000001          5.6626407282029577E-002
  0.10162500000000001          5.4491956492352923E-002
  0.10200000000000001          4.3785922319999469E-002
  0.10237500000000001          2.6161878034514748E-002
  0.10275000000000001          4.0559904741705654E-003
  0.10312500000000001         -1.9697832626257638E-002
  0.10350000000000001         -4.2120764853056422E-002
  0.10387500000000001         -6.0568997978815736E-002
  0.10425000000000001         -7.2979372550932828E-002
  0.10462500000000001         -7.8079151355171253E-002
  0.10500000000000001         -7.5533000765925382E-002
  0.10537500000000001         -6.5817990481397193E-002
  0.10575000000000001         -5.0124472567014945E-002
  0.10612500000000001         -3.0117436791764610E-002
  0.10650000000000001         -7.6303120975856134E-003
  0.10687500000000001          1.5493258089228749E-002
  0.10725000000000001          3.7651118331134208E-002
  0.10762500000000001          5.7547420157027622E-002
  0.10800000000000001          7.4191130555244844E-002
  0.10837500000000001          8.6909265897775867E-002
  0.10875000000000001          9.5213628280072612E-002
  0.10912500000000000          9.8773059600573462E-002
  0.10950000000000000          9.7341809652999309E-002
  0.10987500000000000          9.0710748955171658E-002
  0.11025000000000000          7.8860513225248674E-002
  0.11062500000000001          6.1867047436952483E-002
  0.11100000000000000          4.0118609302583597E-002
  0.11137500000000002          1.4326354524208355E-002
  0.11175000000000000         -1.4443287357402532E-002
  0.11212500000000002         -4.4722695998592139E-002
  0.11250000000000000         -7.4726996969498874E-002
  0.11287500000000002        -0.10245752686479666     
  0.11325000000000000        -0.12582703454273936     
  0.11362500000000002        -0.14283129163645025     
  0.11400000000000000        -0.15177764467045207     
  0.11437500000000002        -0.15138334222648980     
  0.11475000000000000        -0.14101737060785344     
  0.11512500000000002        -0.12073012236541869     
  0.11550000000000001         -9.1357500853629731E-002
  0.11587500000000002         -5.4488615017370512E-002
  0.11625000000000001         -1.2356035915364506E-002
  0.11662500000000002          3.2202171309212282E-002
  0.11700000000000001          7.6093202431425463E-002
  0.11737499999999999         0.11604247208145685     
  0.11775000000000001         0.14893536545652988     
  0.11812499999999999         0.17205908334313835     
  0.11850000000000001         0.18330448644080280     
  0.11887499999999999         0.18140236396244416     
  0.11925000000000001         0.16609515264455371     
  0.11962500000000000         0.13819059514106830     
  0.12000000000000001          9.9585541619971116E-002
  0.12037500000000000          5.3196369726456097E-002
  0.12075000000000001          2.7613622289795305E-003
  0.12112500000000000         -4.7449584327943314E-002
  0.12150000000000001         -9.3087387888039413E-002
  0.12187500000000000        -0.12992306945148183     
  0.12225000000000001        -0.15462453500483048     
  0.12262500000000000        -0.16481734140295881     
  0.12300000000000001        -0.15955637993026081     
  0.12337500000000000        -0.13945277343048704     
  0.12375000000000001        -0.10647207471163082     
  0.12412500000000000         -6.3925083296464014E-002
  0.12450000000000001         -1.5878750606879384E-002
  0.12487500000000000          3.3180291082890459E-002
  0.12525000000000003          7.8961634014021592E-002
  0.12562499999999999         0.11776956004443792     
  0.12600000000000000         0.14690814229626598     
  0.12637500000000002         0.16485462595912123     
  0.12675000000000003         0.17133762458204932     
  0.12712499999999999         0.16714080454444213     
  0.12750000000000000         0.15397947296995013     
  0.12787500000000002         0.13406336503663008     
  0.12825000000000003         0.10989266877904991     
  0.12862499999999999          8.3807659152803984E-002
  0.12900000000000000          5.7918173580135880E-002
  0.12937500000000002          3.3694238797133201E-002
  0.12975000000000003          1.2093930790004852E-002
  0.13012499999999999         -6.7376256123769743E-003
  0.13050000000000000         -2.3210090793025662E-002
  0.13087500000000002         -3.8400595807404979E-002
  0.13125000000000003         -5.3858560530211652E-002
  0.13162499999999999         -7.1349805456215012E-002
  0.13200000000000001         -9.2738910050548962E-002
  0.13237500000000002        -0.11957133703282249     
  0.13275000000000003        -0.15291337848259587     
  0.13312499999999999        -0.19292448538864146     
  0.13350000000000001        -0.23877933586822273     
  0.13387500000000002        -0.28840341747653303     
  0.13424999999999998        -0.33860377917624729     
  0.13462499999999999        -0.38514171347712112     
  0.13500000000000001        -0.42303544722025060     
  0.13537500000000002        -0.44701509398758354     
  0.13574999999999998        -0.45205819940071484     
  0.13612500000000000        -0.43380341825304580     
  0.13650000000000001        -0.38923391807312868     
  0.13687500000000002        -0.31701319910103842     
  0.13724999999999998        -0.21777722552780343     
  0.13762500000000000         -9.4280446967216242E-002
  0.13800000000000001          4.8669850066156053E-002
  0.13837500000000003         0.20449142377114660     
  0.13874999999999998         0.36522446365714811     
  0.13912500000000000         0.52213692944985479     
  0.13950000000000001         0.66629085310347735     
  0.13987500000000003         0.78926977922934172     
  0.14024999999999999         0.88374006985780174     
  0.14062500000000000         0.94396269387691878     
  0.14100000000000001         0.96627135264708186     
  0.14137500000000003         0.94898794738100634     
  0.14174999999999999         0.89274821592437570     
  0.14212500000000000         0.80008739119216388     
  0.14250000000000002         0.67507103307705663     
  0.14287500000000003         0.52302451918195203     
  0.14324999999999999         0.34994003534489093     
  0.14362500000000000         0.16221210840348263     
  0.14400000000000002         -3.3794459822907810E-002
  0.14437500000000003        -0.23161542046912564     
  0.14474999999999999        -0.42488448352995478     
  0.14512500000000000        -0.60712325613247442     
  0.14550000000000002        -0.77134019552206379     
  0.14587500000000003        -0.91048278066556088     
  0.14624999999999999         -1.0170640290458182     
  0.14662500000000001         -1.0837501095567503     
  0.14700000000000002         -1.1042138008650031     
  0.14737500000000003         -1.0736299844926096     
  0.14774999999999999        -0.99001211116656851     
  0.14812500000000001        -0.85503572905856939     
  0.14850000000000002        -0.67451292547084540     
  0.14887500000000004        -0.45877977402727699     
  0.14924999999999999        -0.22210395484164808     
  0.14962500000000001          1.8373871584129488E-002
  0.15000000000000002         0.24412017764047392     
  0.15037499999999998         0.43733451172619225     
  0.15075000000000000         0.58288257082035599     
  0.15112500000000001         0.67021711985269838     
  0.15150000000000002         0.69464477507391242     
  0.15187499999999998         0.65781520241787939     
  0.15225000000000000         0.56781960495804429     
  0.15262500000000001         0.43776993699549566     
  0.15300000000000002         0.28450871286044149     
  0.15337499999999998         0.12628211051686034     
  0.15375000000000000         -1.9258848640237778E-002
  0.15412500000000001        -0.13703745291113717     
  0.15450000000000003        -0.21637124271442187     
  0.15487499999999998        -0.25158705063193537     
  0.15525000000000000        -0.24270771691860613     
  0.15562500000000001        -0.19481433881621618     
  0.15600000000000003        -0.11731967007257692     
  0.15637499999999999         -2.2518485685690620E-002
  0.15675000000000000          7.6108882346803006E-002
  0.15712500000000001         0.16562218342933199     
  0.15750000000000003         0.23526845739299668     
  0.15787499999999999         0.27766981821874231     
  0.15825000000000000         0.28993447227258906     
  0.15862500000000002         0.27348562431562090     
  0.15900000000000003         0.23383258183810196     
  0.15937499999999999         0.17963035777831621     
  0.15975000000000000         0.12080535343225679     
  0.16012500000000002          6.7210125924869940E-002
  0.16050000000000003          2.6745279157850205E-002
  0.16087499999999999          4.0908273086512764E-003
  0.16125000000000000         -1.0406862110146076E-004
  0.16162500000000002          1.1036679877936856E-002
  0.16200000000000003          3.0974304613962771E-002
  0.16237499999999999          5.1357640183628310E-002
  0.16275000000000001          6.3742217938276460E-002
  0.16312500000000002          6.0915423327723747E-002
  0.16350000000000003          3.8856082441309316E-002
  0.16387499999999999         -2.8362531888565835E-003
  0.16425000000000001         -6.0596565863946850E-002
  0.16462500000000002        -0.12752095433386496     
  0.16500000000000004        -0.19452600076909449     
  0.16537499999999999        -0.25183846524243186     
  0.16575000000000001        -0.29085026880521464     
  0.16612500000000002        -0.30500827063393643     
  0.16650000000000004        -0.29137321674288269     
  0.16687500000000000        -0.25063954654106912     
  0.16725000000000001        -0.18686429468173679     
  0.16762500000000002        -0.10706441003231558     
  0.16799999999999998         -1.9894407888357540E-002
  0.16837500000000000          6.5552954365630883E-002
  0.16875000000000001         0.14069099564053344     
  0.16912500000000003         0.19863406229507680     
  0.16949999999999998         0.23464790793991686     
  0.16987500000000000         0.24638748487511464     
  0.17025000000000001         0.23407147779660073     
  0.17062500000000003         0.19993196130186425     
  0.17099999999999999         0.14805761016698205     
  0.17137500000000000          8.3570840552070341E-002
  0.17175000000000001          1.2515161855149993E-002
  0.17212500000000003         -5.8761227176533835E-002
  0.17249999999999999        -0.12438253031583289     
  0.17287500000000000        -0.17848973171155691     
  0.17325000000000002        -0.21660124504940365     
  0.17362500000000003        -0.23523967405898716     
  0.17399999999999999        -0.23237482120352448     
  0.17437500000000000        -0.20811527497317100     
  0.17475000000000002        -0.16410434946737035     
  0.17512500000000003        -0.10406034376422391     
  0.17549999999999999         -3.3310891013673197E-002
  0.17587500000000000          4.1706667611390587E-002
  0.17625000000000002         0.11378997900741414     
  0.17662500000000003         0.17587267410468679     
  0.17699999999999999         0.22189712910147924     
  0.17737500000000000         0.24707840614372834     
  0.17775000000000002         0.24891674609771819     
  0.17812500000000003         0.22737001605705262     
  0.17849999999999999         0.18458224322323999     
  0.17887500000000001         0.12530016319124929     
  0.17925000000000002          5.5611134120891463E-002
  0.17962500000000003         -1.7284980101208026E-002
  0.17999999999999999         -8.6178545668830028E-002
  0.18037500000000001        -0.14461771529238188     
  0.18075000000000002        -0.18761279185072513     
  0.18112500000000004        -0.21232636773701463     
  0.18149999999999999        -0.21797044401406221     
  0.18187500000000001        -0.20605840211425441     
  0.18225000000000002        -0.17978668951878599     
  0.18262500000000004        -0.14346735204863176     
  0.18300000000000000        -0.10208617438200335     
  0.18337500000000001         -6.0149020188216940E-002
  0.18375000000000002         -2.1549114102287069E-002
  0.18412499999999998          1.0920944041029189E-002
  0.18450000000000000          3.5951697767777194E-002
  0.18487500000000001          5.3244271876842150E-002
  0.18525000000000003          6.3506338498043796E-002
  0.18562499999999998          6.8111384332854866E-002
  0.18600000000000000          6.8589418305022493E-002
  0.18637500000000001          6.6417782185927532E-002
  0.18675000000000003          6.2856721130931728E-002
  0.18712499999999999          5.8727877215206017E-002
  0.18750000000000000          5.4601420225005914E-002
  0.18787500000000001          5.0787356651136935E-002
  0.18825000000000003          4.7501892576516561E-002
  0.18862499999999999          4.4858740342762611E-002
  0.18900000000000000          4.3149954087938633E-002