  -1.4999999999999999E-002     0.0000000000000000     
  -1.4624999999999999E-002    -4.5172152612209179E-028
  -1.4249999999999999E-002     1.1637529767116299E-026
  -1.3874999999999998E-002     2.3121631958877525E-026
  -1.3500000000000000E-002     2.7557489344009710E-026
  -1.3125000000000000E-002     2.2748008054821728E-025
  -1.2749999999999999E-002     9.1847469066847914E-025
  -1.2374999999999999E-002     3.5561693325150755E-024
  -1.2000000000000000E-002     1.1298663373156453E-023
  -1.1625000000000000E-002     3.9372692579433766E-023
  -1.1250000000000000E-002     1.3703867429815451E-022
  -1.0874999999999999E-002     4.6091362266915463E-022
  -1.0499999999999999E-002     1.5107808698630026E-021
  -1.0124999999999999E-002     4.8700858449807735E-021
  -9.7499999999999983E-003     1.5428063436662376E-020
  -9.3749999999999979E-003     4.7924009919856011E-020
  -8.9999999999999993E-003     1.4594985960592928E-019
  -8.6249999999999990E-003     4.3590054176083808E-019
  -8.2500000000000004E-003     1.2769271253729863E-018
  -7.8750000000000001E-003     3.6688632167635225E-018
  -7.4999999999999989E-003     1.0338966638184707E-017
  -7.1249999999999994E-003     2.8576275687625103E-017
  -6.7499999999999991E-003     7.7468873322849850E-017
  -6.3749999999999987E-003     2.0600916598442026E-016
  -5.9999999999999984E-003     5.3742025216161291E-016
  -5.6249999999999998E-003     1.3756015798332512E-015
  -5.2499999999999995E-003     3.4556694212255709E-015
  -4.8749999999999991E-003     8.5228597647708011E-015
  -4.4999999999999988E-003     2.0647251985971669E-014
  -4.1249999999999985E-003     4.9166393109487696E-014
  -3.7499999999999981E-003     1.1518248875625980E-013
  -3.3749999999999995E-003     2.6579441778891730E-013
  -2.9999999999999992E-003     6.0508782022626935E-013
  -2.6249999999999989E-003     1.3615388736922487E-012
  -2.2499999999999985E-003     3.0352394232980714E-012
  -1.8749999999999982E-003     6.7215518295071654E-012
  -1.4999999999999996E-003     1.4828919664071693E-011
  -1.1249999999999993E-003     3.2685163128735739E-011
  -7.4999999999999893E-004     7.2153306766115180E-011
  -3.7499999999999860E-004     1.5982319072233166E-010
   1.7347234759768071E-018     3.5545985567063167E-010
   3.7500000000000207E-004     7.9347275112542689E-010
   7.5000000000000067E-004     1.7752085589863155E-009
   1.1250000000000010E-003     3.9711401754096050E-009
   1.5000000000000013E-003     8.8576977530663265E-009
   1.8750000000000017E-003     1.9643207001197105E-008
   2.2500000000000020E-003     4.3191157974392120E-008
   2.6250000000000023E-003     9.3927356781567106E-008
   3.0000000000000027E-003     2.0160796486522776E-007
   3.3750000000000030E-003     4.2638729742955946E-007
   3.7499999999999999E-003     8.8734031904580743E-007
   4.1250000000000002E-003     1.8151553474622588E-006
   4.5000000000000005E-003     3.6467222073835038E-006
   4.8750000000000009E-003     7.1907682545338849E-006
   5.2500000000000012E-003     1.3909456914409264E-005
   5.6250000000000015E-003     2.6382557727768675E-005
   6.0000000000000019E-003     4.9049832144830606E-005
   6.3750000000000022E-003     8.9357489111762449E-005
   6.7500000000000025E-003     1.5946431879961323E-004
   7.1250000000000029E-003     2.7867644452285017E-004
   7.5000000000000032E-003     4.7675893517515740E-004
   7.8750000000000001E-003     7.9818823788009336E-004
   8.2500000000000004E-003     1.3072158642781402E-003
   8.6250000000000007E-003     2.0932440964270714E-003
   9.0000000000000011E-003     3.2755927582746348E-003
   9.3750000000000014E-003     5.0057410392043604E-003
   9.7500000000000017E-003     7.4646005315704604E-003
   1.0125000000000002E-002     1.0851129985046773E-002
   1.0500000000000002E-002     1.5357542068422252E-002
   1.0875000000000003E-002     2.1127268838141710E-002
   1.1250000000000003E-002     2.8189929217190254E-002
   1.1625000000000003E-002     3.6373533014501497E-002
   1.2000000000000000E-002     4.5194304453275533E-002
   1.2375000000000001E-002     5.3731848432180103E-002
   1.2750000000000001E-002     6.0508649024940568E-002
   1.3125000000000001E-002     6.3393150065079701E-002
   1.3500000000000002E-002     5.9569906100493231E-002
   1.3875000000000002E-002     4.5598292662137385E-002
   1.4250000000000002E-002     1.7626076170931097E-002
   1.4625000000000003E-002    -2.8248123388020845E-002
   1.5000000000000003E-002    -9.5402386103264653E-002
   1.5375000000000003E-002   -0.18598356417910633     
   1.5750000000000004E-002   -0.30004656344409231     
   1.6125000000000000E-002   -0.43468166645518985     
   1.6500000000000001E-002   -0.58324678952049425     
   1.6875000000000001E-002   -0.73485607398537078     
   1.7250000000000001E-002   -0.87426991166853285     
   1.7625000000000002E-002   -0.98240499048602337     
   1.8000000000000002E-002    -1.0374969198857276     
   1.8375000000000002E-002    -1.0169969635215899     
   1.8750000000000003E-002   -0.90016561946164586     
   1.9125000000000003E-002   -0.67105601596831987     
   1.9500000000000003E-002   -0.32181323221212016     
   1.9875000000000004E-002    0.14440869481997343     
   2.0250000000000004E-002    0.71112452309726981     
   2.0625000000000004E-002     1.3473819539001586     
   2.1000000000000005E-002     2.0083917639549700     
   2.1375000000000005E-002     2.6378909019731571     
   2.1750000000000005E-002     3.1726572748590778     
   2.2125000000000006E-002     3.5486924769584069     
   2.2499999999999999E-002     3.7084414719957506     
   2.2875000000000000E-002     3.6085487863043686     
   2.3250000000000000E-002     3.2269603944027150     
   2.3625000000000000E-002     2.5675133538404746     
   2.4000000000000000E-002     1.6625888865028529     
   2.4375000000000001E-002    0.57170543062214751     
   2.4750000000000001E-002   -0.62359502816758616     
   2.5125000000000001E-002    -1.8275273987453846     
   2.5500000000000002E-002    -2.9406724918811475     
   2.5875000000000002E-002    -3.8709870570165403     
   2.6250000000000002E-002    -4.5439522471741762     
   2.6625000000000003E-002    -4.9110698660594085     
   2.7000000000000003E-002    -4.9538974269747342     
   2.7375000000000003E-002    -4.6851265196149665     
   2.7750000000000004E-002    -4.1449220016320858     
   2.8125000000000004E-002    -3.3944786501107034     
   2.8500000000000004E-002    -2.5079357640715618     
   2.8875000000000005E-002    -1.5623732751107600     
   2.9250000000000005E-002   -0.62999613174652158     
   2.9625000000000005E-002    0.22835485848385362     
   3.0000000000000006E-002    0.96803454768023611     
   3.0375000000000006E-002     1.5617730858770578     
   3.0750000000000000E-002     1.9986540658510434     
   3.1125000000000000E-002     2.2822354963486746     
   3.1500000000000000E-002     2.4262291342861788     
   3.1875000000000001E-002     2.4510886360157538     
   3.2250000000000001E-002     2.3800690665747122     
   3.2625000000000001E-002     2.2365651008172036     
   3.3000000000000002E-002     2.0417440932280484     
   3.3375000000000002E-002     1.8140004782884689     
   3.3750000000000002E-002     1.5677311907069416     
   3.4125000000000003E-002     1.3144913568728807     
   3.4500000000000003E-002     1.0629791587674486     
   3.4875000000000003E-002    0.81936648873620188     
   3.5250000000000004E-002    0.58871422571064014     
   3.5625000000000004E-002    0.37490283755586068     
   3.6000000000000004E-002    0.18060768589208817     
   3.6375000000000005E-002     8.3726277981641256E-003
   3.6750000000000005E-002   -0.14042039675743920     
   3.7125000000000005E-002   -0.26485899143474234     
   3.7500000000000006E-002   -0.36464827951426293     
   3.7875000000000006E-002   -0.44067770594130484     
   3.8250000000000006E-002   -0.49421311250119898     
   3.8625000000000007E-002   -0.52713388601323929     
   3.9000000000000000E-002   -0.54204298011757923     
   3.9375000000000000E-002   -0.54159452221784277     
   3.9750000000000001E-002   -0.52863990375916037     
   4.0125000000000001E-002   -0.50612783552722729     
   4.0500000000000001E-002   -0.47658781814244833     
   4.0875000000000002E-002   -0.44260396487572584     
   4.1250000000000002E-002   -0.40615519656159677     
   4.1625000000000002E-002   -0.36918306729579359     
   4.2000000000000003E-002   -0.33304098992695896     
   4.2375000000000003E-002   -0.29878008834888975     
   4.2750000000000003E-002   -0.26715007565570287     
   4.3125000000000004E-002   -0.23883313876098416     
   4.3500000000000004E-002   -0.21373601698297057     
   4.3875000000000004E-002   -0.19207707227157114     
   4.4250000000000005E-002   -0.17367495843274119     
   4.4625000000000005E-002   -0.15802894240686052     
   4.5000000000000005E-002   -0.14495061385270303     
   4.5375000000000006E-002   -0.13382601005781419     
   4.5750000000000006E-002   -0.12383408798475415     
   4.6125000000000006E-002   -0.11459864165604944     
   4.6500000000000007E-002   -0.10538352566796186     
   4.6875000000000007E-002    -9.5420270778896601E-002
   4.7250000000000000E-002    -8.4373805924687156E-002
   4.7625000000000001E-002    -7.1722279688360244E-002
   4.8000000000000001E-002    -5.7086038516758350E-002
   4.8375000000000001E-002    -4.0538451604311868E-002
   4.8750000000000002E-002    -2.1972456140531262E-002
   4.9125000000000002E-002    -1.3867972547474570E-003
   4.9500000000000002E-002     2.0566867242699172E-002
   4.9875000000000003E-002     4.3642059456332011E-002
   5.0250000000000003E-002     6.7252304348181552E-002
   5.0625000000000003E-002     9.0647085978800362E-002
   5.1000000000000004E-002    0.11319983224308866     
   5.1375000000000004E-002    0.13406555497744688     
   5.1750000000000004E-002    0.15270804672105479     
   5.2125000000000005E-002    0.16850503482045293     
   5.2500000000000005E-002    0.18093716499779286     
   5.2875000000000005E-002    0.18985250701486214     
   5.3250000000000006E-002    0.19482414194294900     
   5.3625000000000006E-002    0.19602405373132087     
   5.4000000000000006E-002    0.19359385064641840     
   5.4375000000000007E-002    0.18744914206006236     
   5.4750000000000007E-002    0.17822955817087532     
   5.5125000000000007E-002    0.16620566578896748     
   5.5500000000000008E-002    0.15190552368591426     
   5.5875000000000008E-002    0.13591050426126777     
   5.6250000000000008E-002    0.11876753263366796     
   5.6625000000000009E-002    0.10106043191974123     
   5.7000000000000009E-002     8.3246032155648686E-002
   5.7375000000000009E-002     6.5998357452994844E-002
   5.7750000000000010E-002     4.9416771211566089E-002
   5.8125000000000010E-002     3.4009358915268795E-002
   5.8500000000000010E-002     1.9964764137404941E-002
   5.8875000000000011E-002     7.3312047560942957E-003
   5.9250000000000011E-002    -3.7074471820898987E-003
   5.9624999999999997E-002    -1.3285390690380367E-002
   5.9999999999999998E-002    -2.1520061857908009E-002
   6.0374999999999998E-002    -2.8516222646591226E-002
   6.0749999999999998E-002    -3.4423642648781651E-002
   6.1124999999999999E-002    -3.9736260936265894E-002
   6.1499999999999999E-002    -4.4379020929995967E-002
   6.1874999999999999E-002    -4.8629295887273813E-002
   6.2250000000000000E-002    -5.2724844412773128E-002
   6.2625000000000000E-002    -5.6555086197145985E-002
   6.3000000000000000E-002    -6.0340868783843649E-002
   6.3375000000000001E-002    -6.3969241589314565E-002
   6.3750000000000001E-002    -6.7457430944537516E-002
   6.4125000000000001E-002    -7.0719143497582418E-002
   6.4500000000000002E-002    -7.3706353583365330E-002
   6.4875000000000002E-002    -7.6355462277688968E-002
   6.5250000000000002E-002    -7.8441126448306669E-002
   6.5625000000000003E-002    -7.9949803883230017E-002
   6.6000000000000003E-002    -8.0805595779740891E-002
   6.6375000000000003E-002    -8.0833937620581525E-002
   6.6750000000000004E-002    -7.9983232673907168E-002
   6.7125000000000004E-002    -7.8256031095415512E-002
   6.7500000000000004E-002    -7.5629301590752152E-002
   6.7875000000000005E-002    -7.2036683757259440E-002
   6.8250000000000005E-002    -6.7507823211840068E-002
   6.8625000000000005E-002    -6.2188432524856230E-002
   6.9000000000000006E-002    -5.5848875410542398E-002
   6.9375000000000006E-002    -4.8818061686585291E-002
   6.9750000000000006E-002    -4.1154805945172290E-002
   7.0125000000000007E-002    -3.2861858079145295E-002
   7.0500000000000007E-002    -2.4276099242416447E-002
   7.0875000000000007E-002    -1.5429591002835974E-002
   7.1250000000000008E-002    -6.6859530561840814E-003
   7.1625000000000008E-002     1.9732902204964986E-003
   7.2000000000000008E-002     1.0292505979318488E-002
   7.2375000000000009E-002     1.8167454547388474E-002
   7.2750000000000009E-002     2.5509633387931292E-002
   7.3125000000000009E-002     3.2125979131722417E-002
   7.3500000000000010E-002     3.7964861426334442E-002
   7.3875000000000010E-002     4.3067990304492376E-002
   7.4250000000000010E-002     4.7216819514584445E-002
   7.4625000000000011E-002     5.0480994523714247E-002
   7.5000000000000011E-002     5.2895210462590936E-002
   7.5375000000000011E-002     5.4500881523522324E-002
   7.5750000000000012E-002     5.5278170978215330E-002
   7.6124999999999998E-002     5.5402631699355345E-002
   7.6499999999999999E-002     5.4916423648122201E-002
   7.6874999999999999E-002     5.3667428217447855E-002
   7.7249999999999999E-002     5.2202139392632067E-002
   7.7625000000000000E-002     5.0154495604273028E-002
   7.8000000000000000E-002     4.7622460214530683E-002
   7.8375000000000000E-002     4.4996560613857449E-002
   7.8750000000000001E-002     4.1990144004992819E-002
   7.9125000000000001E-002     3.8716123189074900E-002
   7.9500000000000001E-002     3.5461487139836177E-002
   7.9875000000000002E-002     3.1865143309276381E-002
   8.0250000000000002E-002     2.8288450149021906E-002
   8.0625000000000002E-002     2.4680401383845231E-002
   8.1000000000000003E-002     2.0877231735981668E-002
   8.1375000000000003E-002     1.7111536359949782E-002
   8.1750000000000003E-002     1.3341378617289179E-002
   8.2125000000000004E-002     9.5016705964721618E-003
   8.2500000000000004E-002     5.7670702518357129E-003
   8.2875000000000004E-002     1.9686254797521112E-003
   8.3250000000000005E-002    -1.8067547669227235E-003
   8.3625000000000005E-002    -5.5018284712808410E-003
   8.4000000000000005E-002    -9.2848422842609704E-003
   8.4375000000000006E-002    -1.2813481848543825E-002
   8.4750000000000006E-002    -1.6409200987647587E-002
   8.5125000000000006E-002    -1.9844921050980145E-002
   8.5500000000000007E-002    -2.2885893971442244E-002
   8.5875000000000007E-002    -2.5858202557819277E-002
   8.6250000000000007E-002    -2.8456987488815436E-002
   8.6625000000000008E-002    -3.0676574572889553E-002
   8.7000000000000008E-002    -3.2537355342493204E-002
   8.7375000000000008E-002    -3.4004412263146384E-002
   8.7750000000000009E-002    -3.5022944929526678E-002
   8.8125000000000009E-002    -3.5680163308510426E-002
   8.8500000000000009E-002    -3.5858293225999260E-002
   8.8875000000000010E-002    -3.5543390687111535E-002
   8.9250000000000010E-002    -3.4879909692329007E-002
   8.9625000000000010E-002    -3.3738899824145366E-002
   9.0000000000000011E-002    -3.2192707828712308E-002
   9.0375000000000011E-002    -3.0292319622781658E-002
   9.0750000000000011E-002    -2.8006672350186328E-002
   9.1125000000000012E-002    -2.5514614472323213E-002
   9.1500000000000012E-002    -2.2663055791683106E-002
   9.1875000000000012E-002    -1.9681557082917401E-002
   9.2250000000000013E-002    -1.6545143060219945E-002
   9.2624999999999999E-002    -1.3281754670441421E-002
   9.2999999999999999E-002    -1.0023054353651702E-002
   9.3375000000000000E-002    -6.7336530840494038E-003
   9.3750000000000000E-002    -3.5266473736710116E-003
   9.4125000000000000E-002    -4.3952718502467808E-004
   9.4500000000000001E-002     2.5771300177975126E-003
   9.4875000000000001E-002     5.4543051976148459E-003
   9.5250000000000001E-002     8.0635893978387788E-003
   9.5625000000000002E-002     1.0672113770119651E-002
   9.6000000000000002E-002     1.3007845651426573E-002
   9.6375000000000002E-002     1.5069528693720871E-002
   9.6750000000000003E-002     1.6926422667533303E-002
   9.7125000000000003E-002     1.8489717428911926E-002
   9.7500000000000003E-002     1.9721303813286434E-002
   9.7875000000000004E-002     2.0607277202994677E-002
   9.8250000000000004E-002     2.1254520781519577E-002
   9.8625000000000004E-002     2.1648706168417971E-002
   9.9000000000000005E-002     2.1923945631159070E-002
   9.9375000000000005E-002     2.1980380616045195E-002
   9.9750000000000005E-002     2.2074620491375447E-002
  0.10012500000000001          2.1944169231740383E-002
  0.10050000000000001          2.1728359076779332E-002
  0.10087500000000001          2.1452877152331615E-002
  0.10125000000000001          2.0691973353736175E-002
  0.10162500000000001          1.9769296149791712E-002
  0.10200000000000001          1.8676039982324422E-002
  0.10237500000000001          1.7138555538817060E-002
  0.10275000000000001          1.5499762544460453E-002
  0.10312500000000001          1.3885670349075712E-002
  0.10350000000000001          1.2099854879697341E-002
  0.10387500000000001          1.0445748755071357E-002
  0.10425000000000001          8.8426748149912429E-003
  0.10462500000000001          7.1485073174198110E-003
  0.10500000000000001          5.3824745687373566E-003
  0.10537500000000001          3.4604018296445849E-003
  0.10575000000000001          1.2225067445355931E-003
  0.10612500000000001         -1.1056612207030903E-003
  0.10650000000000001         -3.7105281475035543E-003
  0.10687500000000001         -6.2876898502016929E-003
  0.10725000000000001         -8.6599817019084330E-003
  0.10762500000000001         -1.0763869297783340E-002
  0.10800000000000001         -1.2451957665594504E-002
  0.10837500000000001         -1.3568535097090882E-002
  0.10875000000000001         -1.4218713674326700E-002
  0.10912500000000000         -1.4481135633696015E-002
  0.10950000000000000         -1.4495480013008193E-002
  0.10987500000000000         -1.4372126058354175E-002
  0.11025000000000000         -1.4245843151160332E-002
  0.11062500000000001         -1.4137311124295365E-002
  0.11100000000000000         -1.4220494124256789E-002
  0.11137500000000002         -1.4215447736655798E-002
  0.11175000000000000         -1.4346372995824579E-002
  0.11212500000000002         -1.4335118458429455E-002
  0.11250000000000000         -1.4222301763418339E-002
  0.11287500000000002         -1.4065353937072755E-002
  0.11325000000000000         -1.3762780254051723E-002
  0.11362500000000002         -1.3176928886624046E-002
  0.11400000000000000         -1.2556121379498547E-002
  0.11437500000000002         -1.1649286384766816E-002
  0.11475000000000000         -1.0602538742844763E-002
  0.11512500000000002         -9.1837244634044423E-003
  0.11550000000000001         -7.5517665030536470E-003
  0.11587500000000002         -5.8024164734478490E-003
  0.11625000000000001         -3.7386113655635328E-003
  0.11662500000000002         -1.7665190509688769E-003
  0.11700000000000001          2.0548253095908420E-004
  0.11737499999999999          2.0824972801767208E-003
  0.11775000000000001          3.7459759592119992E-003
  0.11812499999999999          5.1049496027824725E-003
  0.11850000000000001          6.1977308474470720E-003
  0.11887499999999999          7.1607513652874131E-003
  0.11925000000000001          7.6188938997490251E-003
  0.11962500000000000          7.9610738232121486E-003
  0.12000000000000001          8.1891916266896222E-003
  0.12037500000000000          8.0826906129287460E-003
  0.12075000000000001          8.1195198462948349E-003
  0.12112500000000000          8.2700754493224386E-003
  0.12150000000000001          8.2482272725709783E-003
  0.12187500000000000          8.6360257271452263E-003
  0.12225000000000001          9.1399784909735413E-003
  0.12262500000000000          9.5420605425484070E-003
  0.12300000000000001          1.0165298572587312E-002
  0.12337500000000000          1.0593213297588005E-002
  0.12375000000000001          1.0831129926742988E-002
  0.12412500000000000          1.0934127964486260E-002
  0.12450000000000001          1.0604607913857703E-002
  0.12487500000000000          1.0094742719931733E-002
  0.12525000000000003          9.2496194463356288E-003
  0.12562499999999999          8.1879244258966314E-003
  0.12600000000000000          6.9396443240336654E-003
  0.12637500000000002          5.4862679946276359E-003
  0.12675000000000003          4.0597123985117965E-003
  0.12712499999999999          2.6763766163223177E-003
  0.12750000000000000          1.3664196744293273E-003
  0.12787500000000002          2.9710531980952916E-004
  0.12825000000000003         -5.3768945382748671E-004
  0.12862499999999999         -1.0959827568698568E-003
  0.12900000000000000         -1.4560129253597242E-003
  0.12937500000000002         -1.6294611283567725E-003
  0.12975000000000003         -1.8323701763567160E-003
  0.13012499999999999         -2.0142227357794326E-003
  0.13050000000000000         -2.2354018952448896E-003
  0.13087500000000002         -2.7682167000156284E-003
  0.13125000000000003         -3.3849566062265314E-003
  0.13162499999999999         -4.0974282613518327E-003
  0.13200000000000001         -5.1006322101661838E-003
  0.13237500000000002         -5.9559248950037174E-003
  0.13275000000000003         -6.8902821939692601E-003
  0.13312499999999999         -7.8240538838741658E-003
  0.13350000000000001         -8.3668366655873811E-003
  0.13387500000000002         -8.8152241508261554E-003
  0.13424999999999998         -8.8944785022859151E-003
  0.13462499999999999         -8.6642721735408924E-003
  0.13500000000000001         -8.1601692789843600E-003
  0.13537500000000002         -7.2955735945071706E-003
  0.13574999999999998         -6.4134692596561895E-003
  0.13612500000000000         -5.4560456274514793E-003
  0.13650000000000001         -4.4549266079377510E-003
  0.13687500000000002         -3.7386589829091097E-003
  0.13724999999999998         -3.1316578820355561E-003
  0.13762500000000000         -2.6961116453073160E-003
  0.13800000000000001         -2.5282295319849603E-003
  0.13837500000000003         -2.4137410620761329E-003
  0.13874999999999998         -2.3397971822551682E-003
  0.13912500000000000         -2.3199727908489766E-003
  0.13950000000000001         -2.2151038302858322E-003
  0.13987500000000003         -1.8995329918852350E-003
  0.14024999999999999         -1.3821985125348254E-003
  0.14062500000000000         -8.3349428148066750E-004
  0.14100000000000001          1.1931311517779570E-004
  0.14137500000000003          1.1622805994175494E-003
  0.14174999999999999          2.2181709803394782E-003
  0.14212500000000000          3.4198782049199537E-003
  0.14250000000000002          4.4351552028859733E-003
  0.14287500000000003          5.2400140713214109E-003
  0.14324999999999999          5.8975022977020130E-003
  0.14362500000000000          6.1585617497373927E-003
  0.14400000000000002          6.1561984681851277E-003
  0.14437500000000003          5.9439886698991352E-003
  0.14474999999999999          5.4916548728339573E-003
  0.14512500000000000          4.8844453047194947E-003
  0.14550000000000002          4.3776229126096704E-003
  0.14587500000000003          3.8246504476555339E-003
  0.14624999999999999          3.3899930317622547E-003
  0.14662500000000001          3.1677454196423456E-003
  0.14700000000000002          3.1017391258277814E-003
  0.14737500000000003          3.1906031392139743E-003
  0.14774999999999999          3.4650171242642516E-003
  0.14812500000000001          3.7753334428049321E-003
  0.14850000000000002          4.0874670738288753E-003
  0.14887500000000004          4.3316202961619383E-003
  0.14924999999999999          4.3655289416131716E-003
  0.14962500000000001          4.1854684314835029E-003
  0.15000000000000002          3.6656614476603005E-003
  0.15037499999999998          2.9666301653930851E-003
  0.15075000000000000          2.0240533297966302E-003
  0.15112500000000001          8.6283897282496348E-004
  0.15150000000000002         -2.0188136923870537E-004
  0.15187499999999998         -1.3132341310559286E-003
  0.15225000000000000         -2.2752377629800071E-003
  0.15262500000000001         -2.9432782454920183E-003
  0.15300000000000002         -3.4025644033514862E-003
  0.15337499999999998         -3.6981152658685248E-003
  0.15375000000000000         -3.6138832942423618E-003
  0.15412500000000001         -3.3947996703101221E-003
  0.15450000000000003         -3.1046231836514100E-003
  0.15487499999999998         -2.7114759884440884E-003
  0.15525000000000000         -2.3573380276059961E-003
  0.15562500000000001         -2.1024318207909531E-003
  0.15600000000000003         -2.0438269495270211E-003
  0.15637499999999999         -2.1235483819237551E-003
  0.15675000000000000         -2.4359145314672053E-003
  0.15712500000000001         -2.8959373880684857E-003
  0.15750000000000003         -3.3287946289947681E-003
  0.15787499999999999         -3.8658372015775450E-003
  0.15825000000000000         -4.3468975380178548E-003
  0.15862500000000002         -4.5102606989341409E-003
  0.15900000000000003         -4.5552706345893612E-003
  0.15937499999999999         -4.3592231995935420E-003
  0.15975000000000000         -3.9635697369402789E-003
  0.16012500000000002         -3.3054965066702151E-003
  0.16050000000000003         -2.5388077940167513E-003
  0.16087499999999999         -1.7207891092838202E-003
  0.16125000000000000         -8.4845403140994344E-004
  0.16162500000000002         -8.9255075269137736E-005
  0.16200000000000003          5.5386207349523466E-004
  0.16237499999999999          1.0084211318541212E-003
  0.16275000000000001          1.2154945251812094E-003
  0.16312500000000002          1.2145024977550083E-003
  0.16350000000000003          1.0844498937994742E-003
  0.16387499999999999          7.4028388109961493E-004
  0.16425000000000001          5.3657338539205425E-004
  0.16462500000000002          3.0622150901709374E-004
  0.16500000000000004          1.4129350425467598E-004
  0.16537499999999999          3.5325071829769123E-004
  0.16575000000000001          6.0037147560967972E-004
  0.16612500000000002          1.0304628367527444E-003
  0.16650000000000004          1.6573829220787825E-003
  0.16687500000000000          2.2920795819269049E-003
  0.16725000000000001          2.9290614038832798E-003
  0.16762500000000002          3.5104247000371201E-003
  0.16799999999999998          3.9381989428191469E-003
  0.16837500000000000          4.1249285676638811E-003
  0.16875000000000001          4.1319235134849959E-003
  0.16912500000000003          3.9133261766874945E-003
  0.16949999999999998          3.3503384059829192E-003
  0.16987500000000000          2.6910281499914696E-003
  0.17025000000000001          1.9530186228778131E-003
  0.17062500000000003          1.1806372322328827E-003
  0.17099999999999999          4.7750517818549785E-004
  0.17137500000000000         -1.3038327251520634E-005
  0.17175000000000001         -2.9090953558773584E-004
  0.17212500000000003         -3.2858872186390913E-004
  0.17249999999999999         -1.4888453835853771E-004
  0.17287500000000000          1.8608183785785552E-004
  0.17325000000000002          6.3817688612082923E-004
  0.17362500000000003          1.0613531708107259E-003
  0.17399999999999999          1.4798874461035231E-003
  0.17437500000000000          1.6482411557206659E-003
  0.17475000000000002          1.7037491982453234E-003
  0.17512500000000003          1.4988740917487738E-003
  0.17549999999999999          9.9204917576577829E-004
  0.17587500000000000          3.6296797970112476E-004
  0.17625000000000002         -4.7773484662113751E-004
  0.17662500000000003         -1.3624071491473871E-003
  0.17699999999999999         -2.1626342280960365E-003
  0.17737500000000000         -2.8220992252802673E-003
  0.17775000000000002         -3.2784052450518502E-003
  0.17812500000000003         -3.3686909282468550E-003
  0.17849999999999999         -3.2573519725622728E-003
  0.17887500000000001         -2.8528953907384249E-003
  0.17925000000000002         -2.3135645734321643E-003
  0.17962500000000003         -1.6459154049679521E-003
  0.17999999999999999         -9.9829317977015095E-004
  0.18037500000000001         -4.9110504455589666E-004
  0.18075000000000002         -3.1520462908907898E-005
  0.18112500000000004          1.2506776615114239E-004
  0.18149999999999999          1.1659137320181839E-004
  0.18187500000000001         -1.0714809376854853E-004
  0.18225000000000002         -5.1271116176425423E-004
  0.18262500000000004         -1.0219414981007418E-003
  0.18300000000000000         -1.5509097726295984E-003
  0.18337500000000001         -2.0555745669520184E-003
  0.18375000000000002         -2.3200914344961112E-003
  0.18412499999999998         -2.4151741378275519E-003
  0.18450000000000000         -2.3012490884986420E-003
  0.18487500000000001         -1.8663874779049653E-003
  0.18525000000000003         -1.2392898434691112E-003
  0.18562499999999998         -5.6704364721249653E-004
  0.18600000000000000          2.3271221521182470E-004
  0.18637500000000001          9.4588572966802223E-004
  0.18675000000000003          1.5424958466334674E-003
  0.18712499999999999          1.9469131714117049E-003
  0.18750000000000000          2.2001190269391145E-003
  0.18787500000000001          2.0988531753712205E-003
  0.18825000000000003          1.9040991136254491E-003
  0.18862499999999999          1.5265790215474194E-003
  0.18900000000000000          9.4569816329845833E-004