  -1.4999999999999999E-002     0.0000000000000000     
  -1.4624999999999999E-002     0.0000000000000000     
  -1.4249999999999999E-002     0.0000000000000000     
  -1.3874999999999998E-002     0.0000000000000000     
  -1.3500000000000000E-002     0.0000000000000000     
  -1.3125000000000000E-002     0.0000000000000000     
  -1.2749999999999999E-002     0.0000000000000000     
  -1.2374999999999999E-002     0.0000000000000000     
  -1.2000000000000000E-002     0.0000000000000000     
  -1.1625000000000000E-002     0.0000000000000000     
  -1.1250000000000000E-002     0.0000000000000000     
  -1.0874999999999999E-002     0.0000000000000000     
  -1.0499999999999999E-002     0.0000000000000000     
  -1.0124999999999999E-002     0.0000000000000000     
  -9.7499999999999983E-003     0.0000000000000000     
  -9.3749999999999979E-003     0.0000000000000000     
  -8.9999999999999993E-003     0.0000000000000000     
  -8.6249999999999990E-003     0.0000000000000000     
  -8.2500000000000004E-003     0.0000000000000000     
  -7.8750000000000001E-003     0.0000000000000000     
  -7.4999999999999989E-003     0.0000000000000000     
  -7.1249999999999994E-003     0.0000000000000000     
  -6.7499999999999991E-003     0.0000000000000000     
  -6.3749999999999987E-003     0.0000000000000000     
  -5.9999999999999984E-003     0.0000000000000000     
  -5.6249999999999998E-003     0.0000000000000000     
  -5.2499999999999995E-003     0.0000000000000000     
  -4.8749999999999991E-003     0.0000000000000000     
  -4.4999999999999988E-003     0.0000000000000000     
  -4.1249999999999985E-003     0.0000000000000000     
  -3.7499999999999981E-003     0.0000000000000000     
  -3.3749999999999995E-003     0.0000000000000000     
  -2.9999999999999992E-003     0.0000000000000000     
  -2.6249999999999989E-003     0.0000000000000000     
  -2.2499999999999985E-003     0.0000000000000000     
  -1.8749999999999982E-003     0.0000000000000000     
  -1.4999999999999996E-003     0.0000000000000000     
  -1.1249999999999993E-003     0.0000000000000000     
  -7.4999999999999893E-004     0.0000000000000000     
  -3.7499999999999860E-004     0.0000000000000000     
   1.7347234759768071E-018     0.0000000000000000     
   3.7500000000000207E-004     0.0000000000000000     
   7.5000000000000067E-004     0.0000000000000000     
   1.1250000000000010E-003     0.0000000000000000     
   1.5000000000000013E-003     0.0000000000000000     
   1.8750000000000017E-003     0.0000000000000000     
   2.2500000000000020E-003     0.0000000000000000     
   2.6250000000000023E-003     0.0000000000000000     
   3.0000000000000027E-003     0.0000000000000000     
   3.3750000000000030E-003     0.0000000000000000     
   3.7499999999999999E-003     0.0000000000000000     
   4.1250000000000002E-003     0.0000000000000000     
   4.5000000000000005E-003     0.0000000000000000     
   4.8750000000000009E-003     0.0000000000000000     
   5.2500000000000012E-003     0.0000000000000000     
   5.6250000000000015E-003     0.0000000000000000     
   6.0000000000000019E-003     0.0000000000000000     
   6.3750000000000022E-003     0.0000000000000000     
   6.7500000000000025E-003     0.0000000000000000     
   7.1250000000000029E-003     0.0000000000000000     
   7.5000000000000032E-003     0.0000000000000000     
   7.8750000000000001E-003     0.0000000000000000     
   8.2500000000000004E-003     0.0000000000000000     
   8.6250000000000007E-003     0.0000000000000000     
   9.0000000000000011E-003     0.0000000000000000     
   9.3750000000000014E-003     0.0000000000000000     
   9.7500000000000017E-003     0.0000000000000000     
   1.0125000000000002E-002     0.0000000000000000     
   1.0500000000000002E-002     0.0000000000000000     
   1.0875000000000003E-002     0.0000000000000000     
   1.1250000000000003E-002     0.0000000000000000     
   1.1625000000000003E-002     0.0000000000000000     
   1.2000000000000000E-002     0.0000000000000000     
   1.2375000000000001E-002     0.0000000000000000     
   1.2750000000000001E-002     0.0000000000000000     
   1.3125000000000001E-002     0.0000000000000000     
   1.3500000000000002E-002     0.0000000000000000     
   1.3875000000000002E-002     0.0000000000000000     
   1.4250000000000002E-002     0.0000000000000000     
   1.4625000000000003E-002     0.0000000000000000     
   1.5000000000000003E-002     0.0000000000000000     
   1.5375000000000003E-002     0.0000000000000000     
   1.5750000000000004E-002     0.0000000000000000     
   1.6125000000000000E-002     0.0000000000000000     
   1.6500000000000001E-002     0.0000000000000000     
   1.6875000000000001E-002     0.0000000000000000     
   1.7250000000000001E-002     0.0000000000000000     
   1.7625000000000002E-002     0.0000000000000000     
   1.8000000000000002E-002     0.0000000000000000     
   1.8375000000000002E-002     0.0000000000000000     
   1.8750000000000003E-002     0.0000000000000000     
   1.9125000000000003E-002     0.0000000000000000     
   1.9500000000000003E-002     0.0000000000000000     
   1.9875000000000004E-002     0.0000000000000000     
   2.0250000000000004E-002    -5.2697672187090535E-036
   2.0625000000000004E-002    -4.2922891530237739E-034
   2.1000000000000005E-002    -5.1103503855785515E-033
   2.1375000000000005E-002    -1.5016236504512168E-032
   2.1750000000000005E-002     2.4796216378618370E-031
   2.2125000000000006E-002     8.8854790430633734E-031
   2.2499999999999999E-002    -9.4398011776682075E-030
   2.2875000000000000E-002     1.9433003654686589E-030
   2.3250000000000000E-002     2.2522912920082915E-028
   2.3625000000000000E-002    -1.2502486234640732E-027
   2.4000000000000000E-002     3.6119907068048858E-027
   2.4375000000000001E-002    -6.0930322094348324E-027
   2.4750000000000001E-002     8.2215349320466176E-028
   2.5125000000000001E-002     3.2195339472013879E-026
   2.5500000000000002E-002     1.6548120591133892E-024
   2.5875000000000002E-002     5.0941292488934805E-024
   2.6250000000000002E-002     2.0634980960282345E-023
   2.6625000000000003E-002     7.7370972713097496E-023
   2.7000000000000003E-002     2.8989989507663730E-022
   2.7375000000000003E-002     1.0637750684275425E-021
   2.7750000000000004E-002     3.8328597100220114E-021
   2.8125000000000004E-002     1.3561650376613897E-020
   2.8500000000000004E-002     4.7111677584697021E-020
   2.8875000000000005E-002     1.6069060026108589E-019
   2.9250000000000005E-002     5.3813129138674538E-019
   2.9625000000000005E-002     1.7693560806583304E-018
   3.0000000000000006E-002     5.7116056154719949E-018
   3.0375000000000006E-002     1.8101704542116462E-017
   3.0750000000000000E-002     5.6322926432082667E-017
   3.1125000000000000E-002     1.7204781023396639E-016
   3.1500000000000000E-002     5.1594073836459917E-016
   3.1875000000000001E-002     1.5189072101920551E-015
   3.2250000000000001E-002     4.3896394054116893E-015
   3.2625000000000001E-002     1.2453438379535307E-014
   3.3000000000000002E-002     3.4681401495225903E-014
   3.3375000000000002E-002     9.4807469438063646E-014
   3.3750000000000002E-002     2.5439646591553233E-013
   3.4125000000000003E-002     6.7002219744649594E-013
   3.4500000000000003E-002     1.7320833352665876E-012
   3.4875000000000003E-002     4.3946981470588398E-012
   3.5250000000000004E-002     1.0943465751644954E-011
   3.5625000000000004E-002     2.6744445200121980E-011
   3.6000000000000004E-002     6.4142274824874335E-011
   3.6375000000000005E-002     1.5096372762979371E-010
   3.6750000000000005E-002     3.4865219045165929E-010
   3.7125000000000005E-002     7.9011136522311176E-010
   3.7500000000000006E-002     1.7568289045755137E-009
   3.7875000000000006E-002     3.8326852802583744E-009
   3.8250000000000006E-002     8.2028801529077100E-009
   3.8625000000000007E-002     1.7222999915134096E-008
   3.9000000000000000E-002     3.5472414339210445E-008
   3.9375000000000000E-002     7.1660231526493590E-008
   3.9750000000000001E-002     1.4198154474343028E-007
   4.0125000000000001E-002     2.7588407647272106E-007
   4.0500000000000001E-002     5.2566497288353276E-007
   4.0875000000000002E-002     9.8204657206224510E-007
   4.1250000000000002E-002     1.7987046021517017E-006
   4.1625000000000002E-002     3.2294105949404184E-006
   4.2000000000000003E-002     5.6827875596354716E-006
   4.2375000000000003E-002     9.7999782155966386E-006
   4.2750000000000003E-002     1.6558482457185164E-005
   4.3125000000000004E-002     2.7408452297095209E-005
   4.3500000000000004E-002     4.4433872972149402E-005
   4.3875000000000004E-002     7.0538008003495634E-005
   4.4250000000000005E-002     1.0961905354633927E-004
   4.4625000000000005E-002     1.6671960474923253E-004
   4.5000000000000005E-002     2.4807080626487732E-004
   4.5375000000000006E-002     3.6100475699640810E-004
   4.5750000000000006E-002     5.1354430615901947E-004
   4.6125000000000006E-002     7.1382970781996846E-004
   4.6500000000000007E-002     9.6893886802718043E-004
   4.6875000000000007E-002     1.2835667002946138E-003
   4.7250000000000000E-002     1.6581407980993390E-003
   4.7625000000000001E-002     2.0868612919002771E-003
   4.8000000000000001E-002     2.5562695227563381E-003
   4.8375000000000001E-002     3.0433696229010820E-003
   4.8750000000000002E-002     3.5160779953002930E-003
   4.9125000000000002E-002     3.9341100491583347E-003
   4.9500000000000002E-002     4.2522083967924118E-003
   4.9875000000000003E-002     4.4254218228161335E-003
   5.0250000000000003E-002     4.4151390902698040E-003
   5.0625000000000003E-002     4.1970778256654739E-003
   5.1000000000000004E-002     3.7681777030229568E-003
   5.1375000000000004E-002     3.1527953688055277E-003
   5.1750000000000004E-002     2.4016648530960083E-003
   5.2125000000000005E-002     1.5929384389892220E-003
   5.2500000000000005E-002     8.1960909301415086E-004
   5.2875000000000005E-002     1.7725840734783560E-004
   5.3250000000000006E-002    -2.5196725619025528E-004
   5.3625000000000006E-002    -4.2189069790765643E-004
   5.4000000000000006E-002    -3.3627377706579864E-004
   5.4375000000000007E-002    -6.0083879361627623E-005
   5.4750000000000007E-002     2.7796320500783622E-004
   5.5125000000000007E-002     4.9541250336915255E-004
   5.5500000000000008E-002     3.7902870099060237E-004
   5.5875000000000008E-002    -2.9163091676309705E-004
   5.6250000000000008E-002    -1.6996579943224788E-003
   5.6625000000000009E-002    -3.9630318060517311E-003
   5.7000000000000009E-002    -7.1033514104783535E-003
   5.7375000000000009E-002    -1.1030177585780621E-002
   5.7750000000000010E-002    -1.5533066354691982E-002
   5.8125000000000010E-002    -2.0307675004005432E-002
   5.8500000000000010E-002    -2.4977719411253929E-002
   5.8875000000000011E-002    -2.9138525947928429E-002
   5.9250000000000011E-002    -3.2400954514741898E-002
   5.9624999999999997E-002    -3.4438397735357285E-002
   5.9999999999999998E-002    -3.5018499940633774E-002
   6.0374999999999998E-002    -3.4031268209218979E-002
   6.0749999999999998E-002    -3.1482301652431488E-002
   6.1124999999999999E-002    -2.7492508292198181E-002
   6.1499999999999999E-002    -2.2276934236288071E-002
   6.1874999999999999E-002    -1.6108689829707146E-002
   6.2250000000000000E-002    -9.2883491888642311E-003
   6.2625000000000000E-002    -2.1164719946682453E-003
   6.3000000000000000E-002     5.1384246908128262E-003
   6.3375000000000001E-002     1.2239936739206314E-002
   6.3750000000000001E-002     1.8994858488440514E-002
   6.4125000000000001E-002     2.5251006707549095E-002
   6.4500000000000002E-002     3.0882049351930618E-002
   6.4875000000000002E-002     3.5771586000919342E-002
   6.5250000000000002E-002     3.9796926081180573E-002
   6.5625000000000003E-002     4.2832378298044205E-002
   6.6000000000000003E-002     4.4740021228790283E-002
   6.6375000000000003E-002     4.5371122658252716E-002
   6.6750000000000004E-002     4.4593289494514465E-002
   6.7125000000000004E-002     4.2298849672079086E-002
   6.7500000000000004E-002     3.8449119776487350E-002
   6.7875000000000005E-002     3.3085521310567856E-002
   6.8250000000000005E-002     2.6362508535385132E-002
   6.8625000000000005E-002     1.8545836210250854E-002
   6.9000000000000006E-002     1.0042938403785229E-002
   6.9375000000000006E-002     1.3442061608657241E-003
   6.9750000000000006E-002    -6.9781769998371601E-003
   7.0125000000000007E-002    -1.4329106546938419E-002
   7.0500000000000007E-002    -2.0164795219898224E-002
   7.0875000000000007E-002    -2.4015167728066444E-002
   7.1250000000000008E-002    -2.5606622919440269E-002
   7.1625000000000008E-002    -2.4828150868415833E-002
   7.2000000000000008E-002    -2.1814782172441483E-002
   7.2375000000000009E-002    -1.6905212774872780E-002
   7.2750000000000009E-002    -1.0631390847265720E-002
   7.3125000000000009E-002    -3.6560958251357079E-003
   7.3500000000000010E-002     3.2919750083237886E-003
   7.3875000000000010E-002     9.5259519293904305E-003
   7.4250000000000010E-002     1.4414233155548573E-002
   7.4625000000000011E-002     1.7503187060356140E-002
   7.5000000000000011E-002     1.8539786338806152E-002
   7.5375000000000011E-002     1.7484618350863457E-002
   7.5750000000000012E-002     1.4520680531859398E-002
   7.6124999999999998E-002     1.0011607781052589E-002
   7.6499999999999999E-002     4.4855149462819099E-003
   7.6874999999999999E-002    -1.4265771023929119E-003
   7.7249999999999999E-002    -7.0730648003518581E-003
   7.7625000000000000E-002    -1.1804757639765739E-002
   7.8000000000000000E-002    -1.5076600015163422E-002
   7.8375000000000000E-002    -1.6430070623755455E-002
   7.8750000000000001E-002    -1.5616329386830330E-002
   7.9125000000000001E-002    -1.2570093385875225E-002
   7.9500000000000001E-002    -7.4467845261096954E-003
   7.9875000000000002E-002    -6.0229422524571419E-004
   8.0250000000000002E-002     7.4249180033802986E-003
   8.0625000000000002E-002     1.5931092202663422E-002
   8.1000000000000003E-002     2.4142533540725708E-002
   8.1375000000000003E-002     3.1266093254089355E-002
   8.1750000000000003E-002     3.6578748375177383E-002
   8.2125000000000004E-002     3.9477732032537460E-002
   8.2500000000000004E-002     3.9568055421113968E-002
   8.2875000000000004E-002     3.6696393042802811E-002
   8.3250000000000005E-002     3.0979877337813377E-002
   8.3625000000000005E-002     2.2789165377616882E-002
   8.4000000000000005E-002     1.2719461694359779E-002
   8.4375000000000006E-002     1.5447074547410011E-003
   8.4750000000000006E-002    -9.8775075748562813E-003
   8.5125000000000006E-002    -2.0669210702180862E-002
   8.5500000000000007E-002    -3.0051728710532188E-002
   8.5875000000000007E-002    -3.7412807345390320E-002
   8.6250000000000007E-002    -4.2366839945316315E-002
   8.6625000000000008E-002    -4.4836770743131638E-002
   8.7000000000000008E-002    -4.5030750334262848E-002
   8.7375000000000008E-002    -4.3442636728286743E-002
   8.7750000000000009E-002    -4.0818504989147186E-002
   8.8125000000000009E-002    -3.7999846041202545E-002
   8.8500000000000009E-002    -3.5922102630138397E-002
   8.8875000000000010E-002    -3.5367742180824280E-002
   8.9250000000000010E-002    -3.6953359842300415E-002
   8.9625000000000010E-002    -4.0959823876619339E-002
   9.0000000000000011E-002    -4.7304898500442505E-002
   9.0375000000000011E-002    -5.5521883070468903E-002
   9.0750000000000011E-002    -6.4791195094585419E-002
   9.1125000000000012E-002    -7.4031464755535126E-002
   9.1500000000000012E-002    -8.2017093896865845E-002
   9.1875000000000012E-002    -8.7553307414054871E-002
   9.2250000000000013E-002    -8.9562386274337769E-002
   9.2624999999999999E-002    -8.7268933653831482E-002
   9.2999999999999999E-002    -8.0232828855514526E-002
   9.3375000000000000E-002    -6.8435616791248322E-002
   9.3750000000000000E-002    -5.2204981446266174E-002
   9.4125000000000000E-002    -3.2190997153520584E-002
   9.4500000000000001E-002    -9.2929489910602570E-003
   9.4875000000000001E-002     1.5492936596274376E-002
   9.5250000000000001E-002     4.1095603257417679E-002
   9.5625000000000002E-002     6.6505990922451019E-002
   9.6000000000000002E-002     9.0746939182281494E-002
   9.6375000000000002E-002    0.11295972019433975     
   9.6750000000000003E-002    0.13233016431331635     
   9.7125000000000003E-002    0.14810843765735626     
   9.7500000000000003E-002    0.15960963070392609     
   9.7875000000000004E-002    0.16618244349956512     
   9.8250000000000004E-002    0.16732597351074219     
   9.8625000000000004E-002    0.16265244781970978     
   9.9000000000000005E-002    0.15202429890632629     
   9.9375000000000005E-002    0.13560135662555695     
   9.9750000000000005E-002    0.11386977881193161     
  0.10012500000000001          8.7681800127029419E-002
  0.10050000000000001          5.8191496878862381E-002
  0.10087500000000001          2.6799922809004784E-002
  0.10125000000000001         -4.9464358016848564E-003
  0.10162500000000001         -3.5471249371767044E-002
  0.10200000000000001         -6.3366621732711792E-002
  0.10237500000000001         -8.7363354861736298E-002
  0.10275000000000001        -0.10654232650995255     
  0.10312500000000001        -0.12026875466108322     
  0.10350000000000001        -0.12824763357639313     
  0.10387500000000001        -0.13050018250942230     
  0.10425000000000001        -0.12722755968570709     
  0.10462500000000001        -0.11889199167490005     
  0.10500000000000001        -0.10603243857622147     
  0.10537500000000001         -8.9341312646865845E-002
  0.10575000000000001         -6.9542177021503448E-002
  0.10612500000000001         -4.7412302345037460E-002
  0.10650000000000001         -2.3795140907168388E-002
  0.10687500000000001          4.2569663492031395E-004
  0.10725000000000001          2.4358754977583885E-002
  0.10762500000000001          4.7076601535081863E-002
  0.10800000000000001          6.7676641047000885E-002
  0.10837500000000001          8.5266016423702240E-002
  0.10875000000000001          9.8989605903625488E-002
  0.10912500000000000         0.10815438628196716     
  0.10950000000000000         0.11213609576225281     
  0.10987500000000000         0.11052517592906952     
  0.11025000000000000         0.10311680287122726     
  0.11062500000000001          9.0007640421390533E-002
  0.11100000000000000          7.1595318615436554E-002
  0.11137500000000002          4.8627465963363647E-002
  0.11175000000000000          2.2143581882119179E-002
  0.11212500000000002         -6.4533301629126072E-003
  0.11250000000000000         -3.5554893314838409E-002
  0.11287500000000002         -6.3452631235122681E-002
  0.11325000000000000         -8.8406100869178772E-002
  0.11362500000000002        -0.10885115712881088     
  0.11400000000000000        -0.12347102910280228     
  0.11437500000000002        -0.13135203719139099     
  0.11475000000000000        -0.13206569850444794     
  0.11512500000000002        -0.12561297416687012     
  0.11550000000000001        -0.11246239393949509     
  0.11587500000000002         -9.3463264405727386E-002
  0.11625000000000001         -6.9737546145915985E-002
  0.11662500000000002         -4.2632188647985458E-002
  0.11700000000000001         -1.3505800627171993E-002
  0.11737499999999999          1.6194712370634079E-002
  0.11775000000000001          4.5112743973731995E-002
  0.11812499999999999          7.1879275143146515E-002
  0.11850000000000001          9.5284141600131989E-002
  0.11887499999999999         0.11413533240556717     
  0.11925000000000001         0.12742279469966888     
  0.11962500000000000         0.13416914641857147     
  0.12000000000000001         0.13376091420650482     
  0.12037500000000000         0.12576436996459961     
  0.12075000000000001         0.11020638048648834     
  0.12112500000000000          8.7496526539325714E-002
  0.12150000000000001          5.8596894145011902E-002
  0.12187500000000000          2.4972796440124512E-002
  0.12225000000000001         -1.1477152816951275E-002
  0.12262500000000000         -4.8490840941667557E-002
  0.12300000000000001         -8.3594560623168945E-002
  0.12337500000000000        -0.11433181911706924     
  0.12375000000000001        -0.13839298486709595     
  0.12412500000000000        -0.15399707853794098     
  0.12450000000000001        -0.15987911820411682     
  0.12487500000000000        -0.15558075904846191     
  0.12525000000000003        -0.14142026007175446     
  0.12562499999999999        -0.11860828846693039     
  0.12600000000000000         -8.8958434760570526E-002
  0.12637500000000002         -5.4945178329944611E-002
  0.12675000000000003         -1.9190568476915359E-002
  0.12712499999999999          1.5543311834335327E-002
  0.12750000000000000          4.6762198209762573E-002
  0.12787500000000002          7.2552450001239777E-002
  0.12825000000000003          9.1545388102531433E-002
  0.12862499999999999         0.10321766138076782     
  0.12900000000000000         0.10767199099063873     
  0.12937500000000002         0.10571966320276260     
  0.12975000000000003          9.8564468324184418E-002
  0.13012499999999999          8.7662152945995331E-002
  0.13050000000000000          7.4445195496082306E-002
  0.13087500000000002          6.0183417052030563E-002
  0.13125000000000003          4.5827418565750122E-002
  0.13162499999999999          3.1993292272090912E-002
  0.13200000000000001          1.8912563100457191E-002
  0.13237500000000002          6.6058998927474022E-003
  0.13275000000000003         -5.0043417140841484E-003
  0.13312499999999999         -1.5984045341610909E-002
  0.13350000000000001         -2.6205357164144516E-002
  0.13387500000000002         -3.5323873162269592E-002
  0.13424999999999998         -4.2718343436717987E-002
  0.13462499999999999         -4.7548495233058929E-002
  0.13500000000000001         -4.8965767025947571E-002
  0.13537500000000002         -4.6209182590246201E-002
  0.13574999999999998         -3.8845159113407135E-002
  0.13612500000000000         -2.6937104761600494E-002
  0.13650000000000001         -1.1202382855117321E-002
  0.13687500000000002          6.9594616070389748E-003
  0.13724999999999998          2.5613617151975632E-002
  0.13762500000000000          4.2390916496515274E-002
  0.13800000000000001          5.4905198514461517E-002
  0.13837500000000003          6.0967899858951569E-002
  0.13874999999999998          5.9154894202947617E-002
  0.13912500000000000          4.8964105546474457E-002
  0.13950000000000001          3.1130602583289146E-002
  0.13987500000000003          7.4942889623343945E-003
  0.14024999999999999         -1.8997862935066223E-002
  0.14062500000000000         -4.4761985540390015E-002
  0.14100000000000001         -6.6056691110134125E-002
  0.14137500000000003         -7.9517900943756104E-002
  0.14174999999999999         -8.2757778465747833E-002
  0.14212500000000000         -7.4664019048213959E-002
  0.14250000000000002         -5.5759798735380173E-002
  0.14287500000000003         -2.8134476393461227E-002
  0.14324999999999999          4.7873123548924923E-003
  0.14362500000000000          3.8701668381690979E-002
  0.14400000000000002          6.9044806063175201E-002
  0.14437500000000003          9.1540381312370300E-002
  0.14474999999999999         0.10287602990865707     
  0.14512500000000000         0.10111644864082336     
  0.14550000000000002          8.6020246148109436E-002
  0.14587500000000003          5.8969754725694656E-002
  0.14624999999999999          2.2823039442300797E-002
  0.14662500000000001         -1.8457921221852303E-002
  0.14700000000000002         -6.0348212718963623E-002
  0.14737500000000003         -9.8354130983352661E-002
  0.14774999999999999        -0.12857630848884583     
  0.14812500000000001        -0.14811061322689056     
  0.14850000000000002        -0.15533468127250671     
  0.14887500000000004        -0.15001885592937469     
  0.14924999999999999        -0.13325050473213196     
  0.14962500000000001        -0.10718958079814911     
  0.15000000000000002         -7.4586905539035797E-002
  0.15037499999999998         -3.8511801511049271E-002
  0.15075000000000000         -1.8498062854632735E-003
  0.15112500000000001          3.2884709537029266E-002
  0.15150000000000002          6.3853196799755096E-002
  0.15187499999999998          8.9934043586254120E-002
  0.15225000000000000         0.11055213958024979     
  0.15262500000000001         0.12555027008056641     
  0.15300000000000002         0.13499194383621216     
  0.15337499999999998         0.13896143436431885     
  0.15375000000000000         0.13747322559356689     
  0.15412500000000001         0.13025803864002228     
  0.15450000000000003         0.11710105091333389     
  0.15487499999999998          9.7817391157150269E-002
  0.15525000000000000          7.2598665952682495E-002
  0.15562500000000001          4.2105425149202347E-002
  0.15600000000000003          7.6750521548092365E-003
  0.15637499999999999         -2.8598600998520851E-002
  0.15675000000000000         -6.4065098762512207E-002
  0.15712500000000001         -9.5618464052677155E-002
  0.15750000000000003        -0.12037296593189240     
  0.15787499999999999        -0.13557405769824982     
  0.15825000000000000        -0.13948698341846466     
  0.15862500000000002        -0.13135965168476105     
  0.15900000000000003        -0.11178571730852127     
  0.15937499999999999         -8.2666717469692230E-002
  0.15975000000000000         -4.6846587210893631E-002
  0.16012500000000002         -7.9780668020248413E-003
  0.16050000000000003          3.0043687671422958E-002
  0.16087499999999999          6.3532419502735138E-002
  0.16125000000000000          8.9527219533920288E-002
  0.16162500000000002         0.10603085905313492     
  0.16200000000000003         0.11224687099456787     
  0.16237499999999999         0.10850204527378082     
  0.16275000000000001          9.6233926713466644E-002
  0.16312500000000002          7.7619135379791260E-002
  0.16350000000000003          5.5200409144163132E-002
  0.16387499999999999          3.1591441482305527E-002
  0.16425000000000001          9.1026285663247108E-003
  0.16462500000000002         -1.0397159494459629E-002
  0.16500000000000004         -2.5692675262689590E-002
  0.16537499999999999         -3.6232154816389084E-002
  0.16575000000000001         -4.1947331279516220E-002
  0.16612500000000002         -4.3189432471990585E-002
  0.16650000000000004         -4.0503084659576416E-002
  0.16687500000000000         -3.4612361341714859E-002
  0.16725000000000001         -2.6237787678837776E-002
  0.16762500000000002         -1.6064813360571861E-002
  0.16799999999999998         -4.8807822167873383E-003
  0.16837500000000000          6.4095505513250828E-003
  0.16875000000000001          1.6696888953447342E-002
  0.16912500000000003          2.4686491116881371E-002
  0.16949999999999998          2.9019150882959366E-002
  0.16987500000000000          2.8297858312726021E-002
  0.17025000000000001          2.1415820345282555E-002
  0.17062500000000003          7.8752003610134125E-003
  0.17099999999999999         -1.2072910554707050E-002
  0.17137500000000000         -3.7162728607654572E-002
  0.17175000000000001         -6.5260365605354309E-002
  0.17212500000000003         -9.3408688902854919E-002
  0.17249999999999999        -0.11814975738525391     
  0.17287500000000000        -0.13606877624988556     
  0.17325000000000002        -0.14437557756900787     
  0.17362500000000003        -0.14120075106620789     
  0.17399999999999999        -0.12617444992065430     
  0.17437500000000000        -0.10033373534679413     
  0.17475000000000002         -6.6301696002483368E-002
  0.17512500000000003         -2.7754040434956551E-002
  0.17549999999999999          1.1049506254494190E-002
  0.17587500000000000          4.5841187238693237E-002
  0.17625000000000002          7.3104672133922577E-002
  0.17662500000000003          9.0321131050586700E-002
  0.17699999999999999          9.6673391759395599E-002
  0.17737500000000000          9.2722482979297638E-002
  0.17775000000000002          8.0583378672599792E-002
  0.17812500000000003          6.3243716955184937E-002
  0.17849999999999999          4.4327013194561005E-002
  0.17887500000000001          2.7375554665923119E-002
  0.17925000000000002          1.5490489080548286E-002
  0.17962500000000003          1.0865496471524239E-002
  0.17999999999999999          1.4733494259417057E-002
  0.18037500000000001          2.7229366824030876E-002
  0.18075000000000002          4.7579780220985413E-002
  0.18112500000000004          7.4205264449119568E-002
  0.18149999999999999         0.10498646646738052     
  0.18187500000000001         0.13739264011383057     
  0.18225000000000002         0.16871716082096100     
  0.18262500000000004         0.19600231945514679     
  0.18300000000000000         0.21633313596248627     
  0.18337500000000001         0.22680979967117310     
  0.18375000000000002         0.22477789223194122     
  0.18412499999999998         0.20813134312629700     
  0.18450000000000000         0.17541977763175964     
  0.18487500000000001         0.12640945613384247     
  0.18525000000000003          6.2141064554452896E-002
  0.18562499999999998         -1.4861172065138817E-002
  0.18600000000000000        -0.10063634067773819     
  0.18637500000000001        -0.18996331095695496     
  0.18675000000000003        -0.27688208222389221     
  0.18712499999999999        -0.35520231723785400     
  0.18750000000000000        -0.41914990544319153     
  0.18787500000000001        -0.46402040123939514     
  0.18825000000000003        -0.48669090867042542     
  0.18862499999999999        -0.48592895269393921     
  0.18900000000000000        -0.46258565783500671     