  -1.4999999999999999E-002     0.0000000000000000     
  -1.4624999999999999E-002     0.0000000000000000     
  -1.4249999999999999E-002     0.0000000000000000     
  -1.3874999999999998E-002     0.0000000000000000     
  -1.3500000000000000E-002     0.0000000000000000     
  -1.3125000000000000E-002     0.0000000000000000     
  -1.2749999999999999E-002     0.0000000000000000     
  -1.2374999999999999E-002     0.0000000000000000     
  -1.2000000000000000E-002     0.0000000000000000     
  -1.1625000000000000E-002     0.0000000000000000     
  -1.1250000000000000E-002     0.0000000000000000     
  -1.0874999999999999E-002     0.0000000000000000     
  -1.0499999999999999E-002     0.0000000000000000     
  -1.0124999999999999E-002     0.0000000000000000     
  -9.7499999999999983E-003     0.0000000000000000     
  -9.3749999999999979E-003     0.0000000000000000     
  -8.9999999999999993E-003     0.0000000000000000     
  -8.6249999999999990E-003     0.0000000000000000     
  -8.2500000000000004E-003     0.0000000000000000     
  -7.8750000000000001E-003     0.0000000000000000     
  -7.4999999999999989E-003     0.0000000000000000     
  -7.1249999999999994E-003     0.0000000000000000     
  -6.7499999999999991E-003     0.0000000000000000     
  -6.3749999999999987E-003     0.0000000000000000     
  -5.9999999999999984E-003     0.0000000000000000     
  -5.6249999999999998E-003     0.0000000000000000     
  -5.2499999999999995E-003     8.9850898908455715E-038
  -4.8749999999999991E-003     1.9381503137462839E-036
  -4.4999999999999988E-003    -1.3976183702010451E-035
  -4.1249999999999985E-003    -1.5327683224229580E-034
  -3.7499999999999981E-003    -1.0988869214115667E-034
  -3.3749999999999995E-003     2.4962974735159410E-033
  -2.9999999999999992E-003     3.7000538598031289E-035
  -2.6249999999999989E-003    -9.6607087337673035E-033
  -2.2499999999999985E-003     1.8849566372800426E-032
  -1.8749999999999982E-003    -1.5228225726675687E-032
  -1.4999999999999996E-003    -2.3153123401645134E-032
  -1.1249999999999993E-003     1.3523515162982488E-031
  -7.4999999999999893E-004    -3.7493617620302524E-031
  -3.7499999999999860E-004     7.8978145046788853E-031
   1.7347234759768071E-018    -1.3940935708654251E-030
   3.7500000000000207E-004     2.1093113592168698E-030
   7.5000000000000067E-004    -2.6895035400194673E-030
   1.1250000000000010E-003     2.7941397150205239E-030
   1.5000000000000013E-003    -2.4960291563140125E-030
   1.8750000000000017E-003     2.8371800801819315E-030
   2.2500000000000020E-003    -6.5559674070853975E-030
   2.6250000000000023E-003     2.8219529519006494E-029
   3.0000000000000027E-003    -9.2369767183862179E-029
   3.3750000000000030E-003     1.3817835014605615E-029
   3.7499999999999999E-003     1.2803642139660787E-027
   4.1250000000000002E-003    -5.7883442657537602E-027
   4.5000000000000005E-003     1.1093218706331358E-026
   4.8750000000000009E-003     4.7017856739269340E-027
   5.2500000000000012E-003    -1.2606122605423555E-025
   5.6250000000000015E-003     7.8109434613021623E-025
   6.0000000000000019E-003     1.0515724582737211E-023
   6.3750000000000022E-003     3.4883292960054186E-023
   6.7500000000000025E-003     1.3551319436004812E-022
   7.1250000000000029E-003     5.0914743788460551E-022
   7.5000000000000032E-003     1.8998209301853851E-021
   7.8750000000000001E-003     6.9531220603557542E-021
   8.2500000000000004E-003     2.4982462375960194E-020
   8.6250000000000007E-003     8.8150154806869261E-020
   9.0000000000000011E-003     3.0539294208428807E-019
   9.3750000000000014E-003     1.0385360304984822E-018
   9.7500000000000017E-003     3.4681371100928730E-018
   1.0125000000000002E-002     1.1368915397781028E-017
   1.0500000000000002E-002     3.6588401786038607E-017
   1.0875000000000003E-002     1.1560466295657001E-016
   1.1250000000000003E-002     3.5855460234840922E-016
   1.1625000000000003E-002     1.0917412150528113E-015
   1.2000000000000000E-002     3.2630563948545195E-015
   1.2375000000000001E-002     9.5736383502096100E-015
   1.2750000000000001E-002     2.7571123220721712E-014
   1.3125000000000001E-002     7.7937451481015477E-014
   1.3500000000000002E-002     2.1624070114042690E-013
   1.3875000000000002E-002     5.8886206374954170E-013
   1.4250000000000002E-002     1.5738242224654617E-012
   1.4625000000000003E-002     4.1280942401789206E-012
   1.5000000000000003E-002     1.0626064711811712E-011
   1.5375000000000003E-002     2.6841480427722425E-011
   1.5750000000000004E-002     6.6531871617871466E-011
   1.6125000000000000E-002     1.6181423082440222E-010
   1.6500000000000001E-002     3.8614128336609243E-010
   1.6875000000000001E-002     9.0404558138314582E-010
   1.7250000000000001E-002     2.0764205117545330E-009
   1.7625000000000002E-002     4.6783928823040905E-009
   1.8000000000000002E-002     1.0339358806043341E-008
   1.8375000000000002E-002     2.2411698374300761E-008
   1.8750000000000003E-002     4.7642516429053472E-008
   1.9125000000000003E-002     9.9314583195039470E-008
   1.9500000000000003E-002     2.0299093668356369E-007
   1.9875000000000004E-002     4.0676028123615944E-007
   2.0250000000000004E-002     7.9897727960063503E-007
   2.0625000000000004E-002     1.5381510246282413E-006
   2.1000000000000005E-002     2.9018003480390841E-006
   2.1375000000000005E-002     5.3634998456176867E-006
   2.1750000000000005E-002     9.7108492087675152E-006
   2.2125000000000006E-002     1.7218438200897321E-005
   2.2499999999999999E-002     2.9890652106587126E-005
   2.2875000000000000E-002     5.0787519988443254E-005
   2.3250000000000000E-002     8.4431083128478837E-005
   2.3625000000000000E-002     1.3727788605934809E-004
   2.4000000000000000E-002     2.1819261538179985E-004
   2.4375000000000001E-002     3.3883681631913167E-004
   2.4750000000000001E-002     5.1375112205196913E-004
   2.5125000000000001E-002     7.5996141314597519E-004
   2.5500000000000002E-002     1.0956488760520118E-003
   2.5875000000000002E-002     1.5377295243572319E-003
   2.6250000000000002E-002     2.0976289976440830E-003
   2.6625000000000003E-002     2.7756672369515906E-003
   2.7000000000000003E-002     3.5531332577236510E-003
   2.7375000000000003E-002     4.3837938432978955E-003
   2.7750000000000004E-002     5.1847404443324703E-003
   2.8125000000000004E-002     5.8290523125255154E-003
   2.8500000000000004E-002     6.1430408976916612E-003
   2.8875000000000005E-002     5.9088951856647257E-003
   2.9250000000000005E-002     4.8795781715271266E-003
   2.9625000000000005E-002     2.8021825679757132E-003
   3.0000000000000006E-002    -5.4399863160195213E-004
   3.0375000000000006E-002    -5.3008900517965106E-003
   3.0750000000000000E-002    -1.1478749649564735E-002
   3.1125000000000000E-002    -1.8911160326341062E-002
   3.1500000000000000E-002    -2.7213554700107279E-002
   3.1875000000000001E-002    -3.5782224218267746E-002
   3.2250000000000001E-002    -4.3807280431560701E-002
   3.2625000000000001E-002    -5.0353090172364764E-002
   3.3000000000000002E-002    -5.4444838333082453E-002
   3.3375000000000002E-002    -5.5222071009979078E-002
   3.3750000000000002E-002    -5.2066991753122578E-002
   3.4125000000000003E-002    -4.4755411669221964E-002
   3.4500000000000003E-002    -3.3533670004158363E-002
   3.4875000000000003E-002    -1.9162344719318103E-002
   3.5250000000000004E-002    -2.8490768476004138E-003
   3.5625000000000004E-002     1.3889984810652581E-002
   3.6000000000000004E-002     2.9433289454641520E-002
   3.6375000000000005E-002     4.2333360506936715E-002
   3.6750000000000005E-002     5.1540960870121805E-002
   3.7125000000000005E-002     5.6657176092792409E-002
   3.7500000000000006E-002     5.7989770972114600E-002
   3.7875000000000006E-002     5.6587547467843051E-002
   3.8250000000000006E-002     5.4043049870092806E-002
   3.8625000000000007E-002     5.2221420922526011E-002
   3.9000000000000000E-002     5.2900440974118841E-002
   3.9375000000000000E-002     5.7313553424783337E-002
   3.9750000000000001E-002     6.5866908695493942E-002
   4.0125000000000001E-002     7.7825119561015135E-002
   4.0500000000000001E-002     9.1304917282725773E-002
   4.0875000000000002E-002    0.10336241002335071     
   4.1250000000000002E-002    0.11040023080700263     
   4.1625000000000002E-002    0.10866804827968639     
   4.2000000000000003E-002     9.4894713603250400E-002
   4.2375000000000003E-002     6.7005938054422023E-002
   4.2750000000000003E-002     2.4617703099092891E-002
   4.3125000000000004E-002    -3.0506148253324282E-002
   4.3500000000000004E-002    -9.4371118268316248E-002
   4.3875000000000004E-002   -0.16096160066006826     
   4.4250000000000005E-002   -0.22279918426107323     
   4.4625000000000005E-002   -0.27175989777340026     
   4.5000000000000005E-002   -0.30015214233214160     
   4.5375000000000006E-002   -0.30185372187406717     
   4.5750000000000006E-002   -0.27328164424889040     
   4.6125000000000006E-002   -0.21426952099758814     
   4.6500000000000007E-002   -0.12831886893877917     
   4.6875000000000007E-002    -2.2593121994576380E-002
   4.7250000000000000E-002     9.2889535629814182E-002
   4.7625000000000001E-002    0.20627843093200998     
   4.8000000000000001E-002    0.30543938031241402     
   4.8375000000000001E-002    0.37962837731859378     
   4.8750000000000002E-002    0.42083847442021849     
   4.9125000000000002E-002    0.42513688448055165     
   4.9500000000000002E-002    0.39310756647508915     
   4.9875000000000003E-002    0.32989328924156508     
   5.0250000000000003E-002    0.24443579778798324     
   5.0625000000000003E-002    0.14819924365307602     
   5.1000000000000004E-002     5.3538980394140546E-002
   5.1375000000000004E-002    -2.8080569371217598E-002
   5.1750000000000004E-002    -8.7610828631031701E-002
   5.2125000000000005E-002   -0.11973604863720733     
   5.2500000000000005E-002   -0.12352258172688857     
   5.2875000000000005E-002   -0.10245573574288326     
   5.3250000000000006E-002    -6.4014848018307341E-002
   5.3625000000000006E-002    -1.8540762240562100E-002
   5.4000000000000006E-002     2.1947021322180703E-002
   5.4375000000000007E-002     4.5475123386755995E-002
   5.4750000000000007E-002     4.1540772300421309E-002
   5.5125000000000007E-002     2.5682665952417305E-003
   5.5500000000000008E-002    -7.5027655420812939E-002
   5.5875000000000008E-002   -0.19002409042237406     
   5.6250000000000008E-002   -0.33625743511605943     
   5.6625000000000009E-002   -0.50276129639315126     
   5.7000000000000009E-002   -0.67455776183063010     
   5.7375000000000009E-002   -0.83407793690794552     
   5.7750000000000010E-002   -0.96269803034318358     
   5.8125000000000010E-002    -1.0427356989027503     
   5.8500000000000010E-002    -1.0595883270248403     
   5.8875000000000011E-002    -1.0035181268679192     
   5.9250000000000011E-002   -0.87108525762294231     
   5.9624999999999997E-002   -0.66606745739033668     
   5.9999999999999998E-002   -0.39940607884636925     
   6.0374999999999998E-002    -8.8481370414921032E-002
   6.0749999999999998E-002    0.24446213280366658     
   6.1124999999999999E-002    0.57464208006514728     
   6.1499999999999999E-002    0.87711658110646362     
   6.1874999999999999E-002     1.1293410494937479     
   6.2250000000000000E-002     1.3135456319236389     
   6.2625000000000000E-002     1.4182997207220385     
   6.3000000000000000E-002     1.4393869665960362     
   6.3375000000000001E-002     1.3799680145994284     
   6.3750000000000001E-002     1.2498028729960196     
   6.4125000000000001E-002     1.0635061824137906     
   6.4500000000000002E-002    0.83932182253145105     
   6.4875000000000002E-002    0.59643768374764128     
   6.5250000000000002E-002    0.35337709894912356     
   6.5625000000000003E-002    0.12629236139682537     
   6.6000000000000003E-002    -7.2224663006483447E-002
   6.6375000000000003E-002   -0.23371859964486513     
   6.6750000000000004E-002   -0.35409350064602291     
   6.7125000000000004E-002   -0.43295688576468799     
   6.7500000000000004E-002   -0.47318934240131894     
   6.7875000000000005E-002   -0.47993295790812474     
   6.8250000000000005E-002   -0.45960152982039298     
   6.8625000000000005E-002   -0.41910805279164043     
   6.9000000000000006E-002   -0.36499722165554849     
   6.9375000000000006E-002   -0.30330543930774584     
   6.9750000000000006E-002   -0.23859358979754436     
   7.0125000000000007E-002   -0.17458501241346422     
   7.0500000000000007E-002   -0.11380482034174111     
   7.0875000000000007E-002    -5.7667015948389799E-002
   7.1250000000000008E-002    -7.5811135981445239E-003
   7.1625000000000008E-002     3.5341619718373775E-002
   7.2000000000000008E-002     6.9235216840073707E-002
   7.2375000000000009E-002     9.0800751903197516E-002
   7.2750000000000009E-002     9.5611880417363820E-002
   7.3125000000000009E-002     7.7615859019143557E-002
   7.3500000000000010E-002     2.9962322299414437E-002
   7.3875000000000010E-002    -5.3512117182708291E-002
   7.4250000000000010E-002   -0.17682793395109914     
   7.4625000000000011E-002   -0.33952303103182213     
   7.5000000000000011E-002   -0.53482639157668066     
   7.5375000000000011E-002   -0.74802512733796211     
   7.5750000000000012E-002   -0.95656346353915700     
   7.6124999999999998E-002    -1.1311824744572154     
   7.6499999999999999E-002    -1.2389131008050653     
   7.6874999999999999E-002    -1.2480128827915349     
   7.7249999999999999E-002    -1.1328735899254494     
   7.7625000000000000E-002   -0.88013655479866382     
   7.8000000000000000E-002   -0.49284240528641921     
   7.8375000000000000E-002     6.8852020920821266E-003
   7.8750000000000001E-002    0.57821374583140561     
   7.9125000000000001E-002     1.1650680983739876     
   7.9500000000000001E-002     1.7021797140440411     
   7.9875000000000002E-002     2.1235642846004623     
   8.0250000000000002E-002     2.3713681614819757     
   8.0625000000000002E-002     2.4044418324147157     
   8.1000000000000003E-002     2.2046058842627874     
   8.1375000000000003E-002     1.7798374404712087     
   8.1750000000000003E-002     1.1641410506518557     
   8.2125000000000004E-002    0.41343373807932837     
   8.2500000000000004E-002   -0.40093751472095335     
   8.2875000000000004E-002    -1.2011677594473491     
   8.3250000000000005E-002    -1.9116557598797277     
   8.3625000000000005E-002    -2.4676599159125057     
   8.4000000000000005E-002    -2.8215195397062280     
   8.4375000000000006E-002    -2.9467326900129556     
   8.4750000000000006E-002    -2.8391039716780488     
   8.5125000000000006E-002    -2.5152453670069357     
   8.5500000000000007E-002    -2.0091178689483464     
   8.5875000000000007E-002    -1.3671648213478846     
   8.6250000000000007E-002   -0.64270631815346702     
   8.6625000000000008E-002    0.10946028677111730     
   8.7000000000000008E-002    0.83765370070343970     
   8.7375000000000008E-002     1.4973555638181106     
   8.7750000000000009E-002     2.0530538362835706     
   8.8125000000000009E-002     2.4803107924049033     
   8.8500000000000009E-002     2.7650654760580977     
   8.8875000000000010E-002     2.9034690939073826     
   8.9250000000000010E-002     2.9004127899019148     
   8.9625000000000010E-002     2.7674473602073921     
   9.0000000000000011E-002     2.5217773160484254     
   9.0375000000000011E-002     2.1836127949017579     
   9.0750000000000011E-002     1.7750608015899001     
   9.1125000000000012E-002     1.3187478453624470     
   9.1500000000000012E-002    0.83651422593765301     
   9.1875000000000012E-002    0.34884873103205077     
   9.2250000000000013E-002   -0.12611890112505353     
   9.2624999999999999E-002   -0.57264354218078617     
   9.2999999999999999E-002   -0.97766695561625871     
   9.3375000000000000E-002    -1.3310635411640190     
   9.3750000000000000E-002    -1.6255513665181238     
   9.4125000000000000E-002    -1.8563364861062319     
   9.4500000000000001E-002    -2.0213235425502805     
   9.4875000000000001E-002    -2.1204949094988974     
   9.5250000000000001E-002    -2.1558377198226970     
   9.5625000000000002E-002    -2.1311173252278293     
   9.6000000000000002E-002    -2.0512701310717860     
   9.6375000000000002E-002    -1.9226135573713030     
   9.6750000000000003E-002    -1.7519040616788515     
   9.7125000000000003E-002    -1.5466789854032736     
   9.7500000000000003E-002    -1.3145760515231086     
   9.7875000000000004E-002    -1.0631997214572311     
   9.8250000000000004E-002   -0.80011509651229917     
   9.8625000000000004E-002   -0.53224557106180448     
   9.9000000000000005E-002   -0.26630906262253051     
   9.9375000000000005E-002    -8.2237794903218947E-003
   9.9750000000000005E-002    0.23681370373023936     
  0.10012500000000001         0.46397501993488310     
  0.10050000000000001         0.66958363306060831     
  0.10087500000000001         0.85065687207305529     
  0.10125000000000001          1.0045405163468288     
  0.10162500000000001          1.1298820114839303     
  0.10200000000000001          1.2257770405624844     
  0.10237500000000001          1.2918004696257253     
  0.10275000000000001          1.3284369728110934     
  0.10312500000000001          1.3366973186318925     
  0.10350000000000001          1.3178239752435696     
  0.10387500000000001          1.2739831271048825     
  0.10425000000000001          1.2074134161933792     
  0.10462500000000001          1.1207923609905075     
  0.10500000000000001          1.0170972336633914     
  0.10537500000000001         0.89961651928968978     
  0.10575000000000001         0.77122385714151398     
  0.10612500000000001         0.63556573947522543     
  0.10650000000000001         0.49550423980645264     
  0.10687500000000001         0.35408014756965644     
  0.10725000000000001         0.21423925205851155     
  0.10762500000000001          7.8214054511119124E-002
  0.10800000000000001         -5.1496184453904331E-002
  0.10837500000000001        -0.17320263169328071     
  0.10875000000000001        -0.28528922727445122     
  0.10912500000000000        -0.38646680558772800     
  0.10950000000000000        -0.47592056120258930     
  0.10987500000000000        -0.55296570539220757     
  0.11025000000000000        -0.61716338413305238     
  0.11062500000000001        -0.66841622153589286     
  0.11100000000000000        -0.70671558326036343     
  0.11137500000000002        -0.73209455808718504     
  0.11175000000000000        -0.74507874981802413     
  0.11212500000000002        -0.74585430581168188     
  0.11250000000000000        -0.73517026145731956     
  0.11287500000000002        -0.71362401963061528     
  0.11325000000000000        -0.68194489291466132     
  0.11362500000000002        -0.64131926961076402     
  0.11400000000000000        -0.59236397878759117     
  0.11437500000000002        -0.53656902835065290     
  0.11475000000000000        -0.47496251986303617     
  0.11512500000000002        -0.40875952155802547     
  0.11550000000000001        -0.33932758222564058     
  0.11587500000000002        -0.26790795803975154     
  0.11625000000000001        -0.19577188289890560     
  0.11662500000000002        -0.12393797040675242     
  0.11700000000000001         -5.3744850098688540E-002
  0.11737499999999999          1.4081432191675517E-002
  0.11775000000000001          7.8703869342964791E-002
  0.11812499999999999         0.13913527358941782     
  0.11850000000000001         0.19515752230213818     
  0.11887499999999999         0.24608803086131714     
  0.11925000000000001         0.29147224574368719     
  0.11962500000000000         0.33123115022915661     
  0.12000000000000001         0.36480599688297249     
  0.12037500000000000         0.39223934228321661     
  0.12075000000000001         0.41334145555658297     
  0.12112500000000000         0.42780330084743246     
  0.12150000000000001         0.43582802663821929     
  0.12187500000000000         0.43728499064979254     
  0.12225000000000001         0.43233275535145688     
  0.12262500000000000         0.42115386612345085     
  0.12300000000000001         0.40395522980791188     
  0.12337500000000000         0.38135965958138940     
  0.12375000000000001         0.35369064428754776     
  0.12412500000000000         0.32168809387552771     
  0.12450000000000001         0.28614143053481961     
  0.12487500000000000         0.24769721371081849     
  0.12525000000000003         0.20730133402238182     
  0.12562499999999999         0.16564593861336441     
  0.12600000000000000         0.12365985465354101     
  0.12637500000000002          8.1899986333274388E-002
  0.12675000000000003          4.1095312737158649E-002
  0.12712499999999999          1.7607022812493175E-003
  0.12750000000000000         -3.5761426650001399E-002
  0.12787500000000002         -7.0960271373442504E-002
  0.12825000000000003        -0.10375390746799637     
  0.12862499999999999        -0.13393038467668925     
  0.12900000000000000        -0.16114044536117766     
  0.12937500000000002        -0.18547732780271883     
  0.12975000000000003        -0.20676024935283294     
  0.13012499999999999        -0.22467711935749962     
  0.13050000000000000        -0.23930269973733209     
  0.13087500000000002        -0.25041638995556942     
  0.13125000000000003        -0.25780383106379962     
  0.13162499999999999        -0.26148698470017573     
  0.13200000000000001        -0.26134624807469903     
  0.13237500000000002        -0.25748265353770822     
  0.13275000000000003        -0.24999126117701964     
  0.13312499999999999        -0.23908478270580952     
  0.13350000000000001        -0.22523362187945148     
  0.13387500000000002        -0.20858141500151411     
  0.13424999999999998        -0.18979946115081714     
  0.13462499999999999        -0.16934088981328491     
  0.13500000000000001        -0.14745584290496763     
  0.13537500000000002        -0.12487252953406497     
  0.13574999999999998        -0.10184949903289722     
  0.13612500000000000         -7.8587467428053670E-002
  0.13650000000000001         -5.5546381443898389E-002
  0.13687500000000002         -3.2926796860184626E-002
  0.13724999999999998         -1.0605058984908636E-002
  0.13762500000000000          1.1009708250020327E-002
  0.13800000000000001          3.1839608723732982E-002
  0.13837500000000003          5.2040307634670012E-002
  0.13874999999999998          7.1180758304773592E-002
  0.13912500000000000          8.9200832213325448E-002
  0.13950000000000001         0.10601797931562562     
  0.13987500000000003         0.12112528683312024     
  0.14024999999999999         0.13456331170806848     
  0.14062500000000000         0.14588975397844739     
  0.14100000000000001         0.15482972709083215     
  0.14137500000000003         0.16152185945076503     
  0.14174999999999999         0.16540485017421447     
  0.14212500000000000         0.16677699730569245     
  0.14250000000000002         0.16561995521650025     
  0.14287500000000003         0.16188980892295046     
  0.14324999999999999         0.15604316937517004     
  0.14362500000000000         0.14819155369606563     
  0.14400000000000002         0.13862811482656368     
  0.14437500000000003         0.12777792839141836     
  0.14474999999999999         0.11588699247080395     
  0.14512500000000000         0.10322754101709317     
  0.14550000000000002          8.9980216411810518E-002
  0.14587500000000003          7.6458296990896707E-002
  0.14624999999999999          6.2658943778781312E-002
  0.14662500000000001          4.8569927132673892E-002
  0.14700000000000002          3.4549758574638725E-002
  0.14737500000000003          2.0323143425539033E-002
  0.14774999999999999          6.0786438510780933E-003
  0.14812500000000001         -7.9512471963020352E-003
  0.14850000000000002         -2.1958750634871529E-002
  0.14887500000000004         -3.5540028271862596E-002
  0.14924999999999999         -4.8502557986297705E-002
  0.14962500000000001         -6.0776921925992627E-002
  0.15000000000000002         -7.2040728399966267E-002
  0.15037499999999998         -8.1967042180748323E-002
  0.15075000000000000         -9.0310115749580630E-002
  0.15112500000000001         -9.7110294400373817E-002
  0.15150000000000002        -0.10201494195775729     
  0.15187499999999998        -0.10495108797829966     
  0.15225000000000000        -0.10632510858183986     
  0.15262500000000001        -0.10593909623265252     
  0.15300000000000002        -0.10411514060549412     
  0.15337499999999998        -0.10132987640139335     
  0.15375000000000000         -9.7484136285902329E-002
  0.15412500000000001         -9.2967133099204444E-002
  0.15450000000000003         -8.7940911758554299E-002
  0.15487499999999998         -8.2339461152724655E-002
  0.15525000000000000         -7.6293259480593081E-002
  0.15562500000000001         -6.9619527937365713E-002
  0.15600000000000003         -6.2424259109417721E-002
  0.15637499999999999         -5.4614651974458049E-002
  0.15675000000000000         -4.6145477391095244E-002
  0.15712500000000001         -3.7204026600163108E-002
  0.15750000000000003         -2.7786116141486621E-002
  0.15787499999999999         -1.8017428077456286E-002
  0.15825000000000000         -8.1773642605941933E-003
  0.15862500000000002          1.8100576019708498E-003
  0.15900000000000003          1.1596811624175285E-002
  0.15937499999999999          2.1212055538876291E-002
  0.15975000000000000          3.0391285967231139E-002
  0.16012500000000002          3.8888042341754164E-002
  0.16050000000000003          4.6818138572618205E-002
  0.16087499999999999          5.3596304023289687E-002
  0.16125000000000000          5.9240254239689982E-002
  0.16162500000000002          6.3700056429710564E-002
  0.16200000000000003          6.6680660536719186E-002
  0.16237499999999999          6.8443044903600217E-002
  0.16275000000000001          6.9037776509285873E-002
  0.16312500000000002          6.8607063891019240E-002
  0.16350000000000003          6.7464409746174583E-002
  0.16387499999999999          6.5952221531046226E-002
  0.16425000000000001          6.3954698733090926E-002
  0.16462500000000002          6.1873646835540669E-002
  0.16500000000000004          5.9608237937369760E-002
  0.16537499999999999          5.6962150878604061E-002
  0.16575000000000001          5.4110648378518304E-002
  0.16612500000000002          5.0673157610297059E-002
  0.16650000000000004          4.6537110568737439E-002
  0.16687500000000000          4.1859555519695370E-002
  0.16725000000000001          3.6361616062924915E-002
  0.16762500000000002          3.0191985343674239E-002
  0.16799999999999998          2.3519553754336110E-002
  0.16837500000000000          1.6235456117823181E-002
  0.16875000000000001          8.9364027437536589E-003
  0.16912500000000003          1.4517971868130467E-003
  0.16949999999999998         -5.9097132078574158E-003
  0.16987500000000000         -1.2636208214041362E-002
  0.17025000000000001         -1.9094726371234133E-002
  0.17062500000000003         -2.4706628459724340E-002
  0.17099999999999999         -2.9441483369741964E-002
  0.17137500000000000         -3.3769078262514345E-002
  0.17175000000000001         -3.6949547065102062E-002
  0.17212500000000003         -3.9658036277702202E-002
  0.17249999999999999         -4.1888336582874136E-002
  0.17287500000000000         -4.3404731106748466E-002
  0.17325000000000002         -4.4665142609015711E-002
  0.17362500000000003         -4.5521843434536392E-002
  0.17399999999999999         -4.5940071141434273E-002
  0.17437500000000000         -4.6085342460200067E-002
  0.17475000000000002         -4.5848226985339892E-002
  0.17512500000000003         -4.5191133112222663E-002
  0.17549999999999999         -4.4035792554626522E-002
  0.17587500000000000         -4.2431279229753822E-002
  0.17625000000000002         -4.0326104350170436E-002
  0.17662500000000003         -3.7550615548308179E-002
  0.17699999999999999         -3.4307350658100755E-002
  0.17737500000000000         -3.0582220313842175E-002
  0.17775000000000002         -2.6351386325041318E-002
  0.17812500000000003         -2.1863424757245811E-002
  0.17849999999999999         -1.7134725987989780E-002
  0.17887500000000001         -1.2397464713668874E-002
  0.17925000000000002         -7.5868378055490241E-003
  0.17962500000000003         -3.0917434816194580E-003
  0.17999999999999999          1.2590667686082485E-003
  0.18037500000000001          5.3117319231827630E-003
  0.18075000000000002          9.0067862555098608E-003
  0.18112500000000004          1.2458271736908430E-002
  0.18149999999999999          1.5512168426096696E-002
  0.18187500000000001          1.8377876417627833E-002
  0.18225000000000002          2.0997274591526664E-002
  0.18262500000000004          2.3350996939564852E-002
  0.18300000000000000          2.5674431657081796E-002
  0.18337500000000001          2.7641460965135353E-002
  0.18375000000000002          2.9499142644094520E-002
  0.18412499999999998          3.1271902248751635E-002
  0.18450000000000000          3.2496849496336883E-002
  0.18487500000000001          3.3496220591402490E-002
  0.18525000000000003          3.4148381255320194E-002
  0.18562499999999998          3.4025241382450222E-002
  0.18600000000000000          3.3616833462023217E-002
  0.18637500000000001          3.2471610301067752E-002
  0.18675000000000003          3.0754796210911511E-002
  0.18712499999999999          2.8671566059857375E-002
  0.18750000000000000          2.6038699231259753E-002
  0.18787500000000001          2.3143293210199100E-002
  0.18825000000000003          2.0092220796532188E-002
  0.18862499999999999          1.6839532501866754E-002
  0.18900000000000000          1.3760746965439470E-002